MODEL 1
REMARK VINA RESULT:    -6.768      0.000      0.000
REMARK INTER + INTRA:         -10.624
REMARK INTER:                  -9.538
REMARK INTRA:                  -1.085
REMARK UNBOUND:                -1.085
REMARK  Name = gant61.pdb
REMARK  10 active torsions:
REMARK  status: ('A' for Active; 'I' for Inactive)
REMARK    1  A    between atoms: C1_1  and  O1_2
REMARK    2  A    between atoms: O1_2  and  C2_3
REMARK    3  A    between atoms: C5_6  and  C9_11
REMARK    4  A    between atoms: C7_8  and  O2_9
REMARK    5  A    between atoms: O2_9  and  C8_10
REMARK    6  A    between atoms: N1_13  and  C10_14
REMARK    7  A    between atoms: C10_14  and  C11_15
REMARK    8  A    between atoms: C10_14  and  C20_29
REMARK    9  A    between atoms: N2_17  and  C12_18
REMARK   10  A    between atoms: N4_26  and  C19_27
REMARK                            x       y       z     vdW  Elec       q    Type
REMARK                         _______ _______ _______ _____ _____    ______ ____
ROOT
ATOM      1  C10 UNL     1     -30.559  -9.586   1.544  0.00  0.00    +0.000 C 
ENDROOT
BRANCH   1   2
ATOM      2  C20 UNL     1     -29.697 -10.449   2.455  0.00  0.00    +0.000 A 
ATOM      3  C21 UNL     1     -30.258 -11.210   3.495  0.00  0.00    +0.000 A 
ATOM      4  C22 UNL     1     -29.445 -11.954   4.352  0.00  0.00    +0.000 A 
ATOM      5  C23 UNL     1     -28.062 -11.940   4.191  0.00  0.00    +0.000 A 
ATOM      6  C24 UNL     1     -27.489 -11.182   3.172  0.00  0.00    +0.000 A 
ATOM      7  C25 UNL     1     -28.300 -10.438   2.312  0.00  0.00    +0.000 A 
ENDBRANCH   1   2
BRANCH   1  10
ATOM      8  C9  UNL     1     -29.915  -9.954  -0.832  0.00  0.00    +0.000 C 
ATOM      9  O3  UNL     1     -30.786 -10.801  -0.998  0.00  0.00    +0.000 OA
ATOM     10  N1  UNL     1     -29.782  -9.256   0.344  0.00  0.00    +0.000 N 
ATOM     11  H10 UNL     1     -28.948  -8.703   0.496  0.00  0.00    +0.000 HD
BRANCH   8  15
ATOM     12  C2  UNL     1     -27.043  -9.040  -3.885  0.00  0.00    +0.000 A 
ATOM     13  C3  UNL     1     -26.679  -9.051  -2.534  0.00  0.00    +0.000 A 
ATOM     14  C4  UNL     1     -27.625  -9.355  -1.554  0.00  0.00    +0.000 A 
ATOM     15  C5  UNL     1     -28.945  -9.639  -1.913  0.00  0.00    +0.000 A 
ATOM     16  C6  UNL     1     -29.315  -9.650  -3.264  0.00  0.00    +0.000 A 
ATOM     17  C7  UNL     1     -28.370  -9.348  -4.253  0.00  0.00    +0.000 A 
BRANCH  12  19
ATOM     18  C1  UNL     1     -24.806  -9.036  -4.729  0.00  0.00    +0.000 C 
ATOM     19  O1  UNL     1     -26.185  -8.752  -4.917  0.00  0.00    +0.000 OA
ENDBRANCH  12  19
BRANCH  17  20
ATOM     20  O2  UNL     1     -28.640  -9.329  -5.599  0.00  0.00    +0.000 OA
ATOM     21  C8  UNL     1     -29.492 -10.336  -6.124  0.00  0.00    +0.000 C 
ENDBRANCH  17  20
ENDBRANCH   8  15
ENDBRANCH   1  10
BRANCH   1  22
ATOM     22  C11 UNL     1     -31.156  -8.312   2.229  0.00  0.00    +0.000 C 
ATOM     23  O4  UNL     1     -32.230  -7.819   1.894  0.00  0.00    +0.000 OA
ATOM     24  N2  UNL     1     -30.304  -7.781   3.191  0.00  0.00    +0.000 N 
ATOM     25  H12 UNL     1     -29.419  -8.277   3.318  0.00  0.00    +0.000 HD
BRANCH  24  26
ATOM     26  C12 UNL     1     -30.504  -6.654   4.013  0.00  0.00    +0.000 A 
ATOM     27  C13 UNL     1     -30.513  -6.884   5.397  0.00  0.00    +0.000 A 
ATOM     28  C14 UNL     1     -30.709  -5.850   6.323  0.00  0.00    +0.000 A 
ATOM     29  C15 UNL     1     -30.898  -4.567   5.805  0.00  0.00    +0.000 A 
ATOM     30  C16 UNL     1     -30.896  -4.304   4.438  0.00  0.00    +0.000 A 
ATOM     31  C17 UNL     1     -30.696  -5.357   3.526  0.00  0.00    +0.000 A 
ATOM     32  N3  UNL     1     -31.110  -2.970   4.193  0.00  0.00    +0.000 NA
ATOM     33  C18 UNL     1     -31.251  -2.414   5.368  0.00  0.00    +0.000 A 
ATOM     34  N4  UNL     1     -31.109  -3.334   6.379  0.00  0.00    +0.000 N 
ATOM     35  C19 UNL     1     -31.149  -3.048   7.792  0.00  0.00    +0.000 C 
ATOM     36  N5  UNL     1     -31.503  -1.113   5.595  0.00  0.00    +0.000 N 
ATOM     37  H19 UNL     1     -31.737  -0.603   4.745  0.00  0.00    +0.000 HD
ATOM     38  H20 UNL     1     -32.128  -0.864   6.354  0.00  0.00    +0.000 HD
ENDBRANCH  24  26
ENDBRANCH   1  22
TORSDOF 7
ENDMDL
MODEL 2
REMARK VINA RESULT:    -6.746      4.700     11.282
REMARK INTER + INTRA:         -10.592
REMARK INTER:                  -9.439
REMARK INTRA:                  -1.153
REMARK UNBOUND:                -1.085
REMARK  Name = gant61.pdb
REMARK  10 active torsions:
REMARK  status: ('A' for Active; 'I' for Inactive)
REMARK    1  A    between atoms: C1_1  and  O1_2
REMARK    2  A    between atoms: O1_2  and  C2_3
REMARK    3  A    between atoms: C5_6  and  C9_11
REMARK    4  A    between atoms: C7_8  and  O2_9
REMARK    5  A    between atoms: O2_9  and  C8_10
REMARK    6  A    between atoms: N1_13  and  C10_14
REMARK    7  A    between atoms: C10_14  and  C11_15
REMARK    8  A    between atoms: C10_14  and  C20_29
REMARK    9  A    between atoms: N2_17  and  C12_18
REMARK   10  A    between atoms: N4_26  and  C19_27
REMARK                            x       y       z     vdW  Elec       q    Type
REMARK                         _______ _______ _______ _____ _____    ______ ____
ROOT
ATOM      1  C10 UNL     1     -30.857 -11.555  -2.810  0.00  0.00    +0.000 C 
ENDROOT
BRANCH   1   2
ATOM      2  C20 UNL     1     -32.072 -12.471  -2.763  0.00  0.00    +0.000 A 
ATOM      3  C21 UNL     1     -33.213 -12.222  -3.544  0.00  0.00    +0.000 A 
ATOM      4  C22 UNL     1     -34.337 -13.044  -3.448  0.00  0.00    +0.000 A 
ATOM      5  C23 UNL     1     -34.341 -14.119  -2.562  0.00  0.00    +0.000 A 
ATOM      6  C24 UNL     1     -33.223 -14.374  -1.773  0.00  0.00    +0.000 A 
ATOM      7  C25 UNL     1     -32.097 -13.553  -1.867  0.00  0.00    +0.000 A 
ENDBRANCH   1   2
BRANCH   1  10
ATOM      8  C9  UNL     1     -30.478 -10.392  -0.641  0.00  0.00    +0.000 C 
ATOM      9  O3  UNL     1     -29.617 -11.194  -0.295  0.00  0.00    +0.000 OA
ATOM     10  N1  UNL     1     -31.076 -10.443  -1.877  0.00  0.00    +0.000 N 
ATOM     11  H10 UNL     1     -31.898  -9.877  -2.049  0.00  0.00    +0.000 HD
BRANCH   8  15
ATOM     12  C2  UNL     1     -31.830  -7.244   1.940  0.00  0.00    +0.000 A 
ATOM     13  C3  UNL     1     -32.407  -7.439   0.680  0.00  0.00    +0.000 A 
ATOM     14  C4  UNL     1     -31.958  -8.471  -0.146  0.00  0.00    +0.000 A 
ATOM     15  C5  UNL     1     -30.921  -9.309   0.275  0.00  0.00    +0.000 A 
ATOM     16  C6  UNL     1     -30.351  -9.134   1.542  0.00  0.00    +0.000 A 
ATOM     17  C7  UNL     1     -30.799  -8.103   2.376  0.00  0.00    +0.000 A 
BRANCH  12  19
ATOM     18  C1  UNL     1     -33.494  -6.347   3.405  0.00  0.00    +0.000 C 
ATOM     19  O1  UNL     1     -32.204  -6.257   2.818  0.00  0.00    +0.000 OA
ENDBRANCH  12  19
BRANCH  17  20
ATOM     20  O2  UNL     1     -30.299  -7.850   3.630  0.00  0.00    +0.000 OA
ATOM     21  C8  UNL     1     -30.631  -8.753   4.676  0.00  0.00    +0.000 C 
ENDBRANCH  17  20
ENDBRANCH   8  15
ENDBRANCH   1  10
BRANCH   1  22
ATOM     22  C11 UNL     1     -30.474 -11.057  -4.243  0.00  0.00    +0.000 C 
ATOM     23  O4  UNL     1     -30.908 -10.011  -4.721  0.00  0.00    +0.000 OA
ATOM     24  N2  UNL     1     -29.661 -11.960  -4.916  0.00  0.00    +0.000 N 
ATOM     25  H12 UNL     1     -29.430 -12.813  -4.403  0.00  0.00    +0.000 HD
BRANCH  24  26
ATOM     26  C12 UNL     1     -29.113 -11.852  -6.211  0.00  0.00    +0.000 A 
ATOM     27  C13 UNL     1     -27.800 -11.365  -6.295  0.00  0.00    +0.000 A 
ATOM     28  C14 UNL     1     -27.143 -11.203  -7.522  0.00  0.00    +0.000 A 
ATOM     29  C15 UNL     1     -27.858 -11.548  -8.671  0.00  0.00    +0.000 A 
ATOM     30  C16 UNL     1     -29.162 -12.032  -8.623  0.00  0.00    +0.000 A 
ATOM     31  C17 UNL     1     -29.803 -12.189  -7.381  0.00  0.00    +0.000 A 
ATOM     32  N3  UNL     1     -29.639 -12.287  -9.886  0.00  0.00    +0.000 NA
ATOM     33  C18 UNL     1     -28.667 -11.966 -10.700  0.00  0.00    +0.000 A 
ATOM     34  N4  UNL     1     -27.558 -11.533 -10.014  0.00  0.00    +0.000 N 
ATOM     35  C19 UNL     1     -26.297 -11.157 -10.601  0.00  0.00    +0.000 C 
ATOM     36  N5  UNL     1     -28.715 -12.036 -12.043  0.00  0.00    +0.000 N 
ATOM     37  H19 UNL     1     -29.652 -12.219 -12.395  0.00  0.00    +0.000 HD
ATOM     38  H20 UNL     1     -28.257 -11.311 -12.584  0.00  0.00    +0.000 HD
ENDBRANCH  24  26
ENDBRANCH   1  22
TORSDOF 7
ENDMDL
MODEL 3
REMARK VINA RESULT:    -6.734      4.650     11.038
REMARK INTER + INTRA:         -10.575
REMARK INTER:                  -9.415
REMARK INTRA:                  -1.160
REMARK UNBOUND:                -1.085
REMARK  Name = gant61.pdb
REMARK  10 active torsions:
REMARK  status: ('A' for Active; 'I' for Inactive)
REMARK    1  A    between atoms: C1_1  and  O1_2
REMARK    2  A    between atoms: O1_2  and  C2_3
REMARK    3  A    between atoms: C5_6  and  C9_11
REMARK    4  A    between atoms: C7_8  and  O2_9
REMARK    5  A    between atoms: O2_9  and  C8_10
REMARK    6  A    between atoms: N1_13  and  C10_14
REMARK    7  A    between atoms: C10_14  and  C11_15
REMARK    8  A    between atoms: C10_14  and  C20_29
REMARK    9  A    between atoms: N2_17  and  C12_18
REMARK   10  A    between atoms: N4_26  and  C19_27
REMARK                            x       y       z     vdW  Elec       q    Type
REMARK                         _______ _______ _______ _____ _____    ______ ____
ROOT
ATOM      1  C10 UNL     1     -30.859 -11.752  -3.289  0.00  0.00    +0.000 C 
ENDROOT
BRANCH   1   2
ATOM      2  C20 UNL     1     -32.054 -12.668  -3.514  0.00  0.00    +0.000 A 
ATOM      3  C21 UNL     1     -31.892 -14.006  -3.912  0.00  0.00    +0.000 A 
ATOM      4  C22 UNL     1     -33.001 -14.815  -4.163  0.00  0.00    +0.000 A 
ATOM      5  C23 UNL     1     -34.287 -14.297  -4.031  0.00  0.00    +0.000 A 
ATOM      6  C24 UNL     1     -34.466 -12.970  -3.647  0.00  0.00    +0.000 A 
ATOM      7  C25 UNL     1     -33.358 -12.158  -3.395  0.00  0.00    +0.000 A 
ENDBRANCH   1   2
BRANCH   1  10
ATOM      8  C9  UNL     1     -30.360 -10.340  -1.301  0.00  0.00    +0.000 C 
ATOM      9  O3  UNL     1     -29.184 -10.687  -1.277  0.00  0.00    +0.000 OA
ATOM     10  N1  UNL     1     -31.226 -10.744  -2.288  0.00  0.00    +0.000 N 
ATOM     11  H10 UNL     1     -32.218 -10.581  -2.168  0.00  0.00    +0.000 HD
BRANCH   8  15
ATOM     12  C2  UNL     1     -32.014  -7.736   1.680  0.00  0.00    +0.000 A 
ATOM     13  C3  UNL     1     -32.361  -7.598   0.331  0.00  0.00    +0.000 A 
ATOM     14  C4  UNL     1     -31.817  -8.457  -0.625  0.00  0.00    +0.000 A 
ATOM     15  C5  UNL     1     -30.913  -9.453  -0.245  0.00  0.00    +0.000 A 
ATOM     16  C6  UNL     1     -30.574  -9.611   1.105  0.00  0.00    +0.000 A 
ATOM     17  C7  UNL     1     -31.119  -8.754   2.070  0.00  0.00    +0.000 A 
BRANCH  12  19
ATOM     18  C1  UNL     1     -33.859  -7.088   3.056  0.00  0.00    +0.000 C 
ATOM     19  O1  UNL     1     -32.495  -6.938   2.689  0.00  0.00    +0.000 OA
ENDBRANCH  12  19
BRANCH  17  20
ATOM     20  O2  UNL     1     -30.844  -8.828   3.413  0.00  0.00    +0.000 OA
ATOM     21  C8  UNL     1     -29.492  -8.693   3.827  0.00  0.00    +0.000 C 
ENDBRANCH  17  20
ENDBRANCH   8  15
ENDBRANCH   1  10
BRANCH   1  22
ATOM     22  C11 UNL     1     -30.283 -11.105  -4.593  0.00  0.00    +0.000 C 
ATOM     23  O4  UNL     1     -30.948 -10.375  -5.323  0.00  0.00    +0.000 OA
ATOM     24  N2  UNL     1     -28.979 -11.511  -4.852  0.00  0.00    +0.000 N 
ATOM     25  H12 UNL     1     -28.579 -12.167  -4.177  0.00  0.00    +0.000 HD
BRANCH  24  26
ATOM     26  C12 UNL     1     -28.139 -11.135  -5.919  0.00  0.00    +0.000 A 
ATOM     27  C13 UNL     1     -27.159 -10.172  -5.634  0.00  0.00    +0.000 A 
ATOM     28  C14 UNL     1     -26.265  -9.707  -6.608  0.00  0.00    +0.000 A 
ATOM     29  C15 UNL     1     -26.392 -10.247  -7.890  0.00  0.00    +0.000 A 
ATOM     30  C16 UNL     1     -27.354 -11.201  -8.207  0.00  0.00    +0.000 A 
ATOM     31  C17 UNL     1     -28.240 -11.656  -7.213  0.00  0.00    +0.000 A 
ATOM     32  N3  UNL     1     -27.273 -11.559  -9.531  0.00  0.00    +0.000 NA
ATOM     33  C18 UNL     1     -26.298 -10.846 -10.030  0.00  0.00    +0.000 A 
ATOM     34  N4  UNL     1     -25.717 -10.050  -9.073  0.00  0.00    +0.000 N 
ATOM     35  C19 UNL     1     -24.581  -9.184  -9.271  0.00  0.00    +0.000 C 
ATOM     36  N5  UNL     1     -25.890 -10.863 -11.311  0.00  0.00    +0.000 N 
ATOM     37  H19 UNL     1     -26.523 -11.379 -11.919  0.00  0.00    +0.000 HD
ATOM     38  H20 UNL     1     -25.602  -9.991 -11.741  0.00  0.00    +0.000 HD
ENDBRANCH  24  26
ENDBRANCH   1  22
TORSDOF 7
ENDMDL
MODEL 4
REMARK VINA RESULT:    -6.663      1.181      1.891
REMARK INTER + INTRA:         -10.474
REMARK INTER:                  -9.199
REMARK INTRA:                  -1.275
REMARK UNBOUND:                -1.085
REMARK  Name = gant61.pdb
REMARK  10 active torsions:
REMARK  status: ('A' for Active; 'I' for Inactive)
REMARK    1  A    between atoms: C1_1  and  O1_2
REMARK    2  A    between atoms: O1_2  and  C2_3
REMARK    3  A    between atoms: C5_6  and  C9_11
REMARK    4  A    between atoms: C7_8  and  O2_9
REMARK    5  A    between atoms: O2_9  and  C8_10
REMARK    6  A    between atoms: N1_13  and  C10_14
REMARK    7  A    between atoms: C10_14  and  C11_15
REMARK    8  A    between atoms: C10_14  and  C20_29
REMARK    9  A    between atoms: N2_17  and  C12_18
REMARK   10  A    between atoms: N4_26  and  C19_27
REMARK                            x       y       z     vdW  Elec       q    Type
REMARK                         _______ _______ _______ _____ _____    ______ ____
ROOT
ATOM      1  C10 UNL     1     -29.212 -10.747   1.933  0.00  0.00    +0.000 C 
ENDROOT
BRANCH   1   2
ATOM      2  C20 UNL     1     -28.049 -11.319   2.731  0.00  0.00    +0.000 A 
ATOM      3  C21 UNL     1     -28.095 -11.419   4.132  0.00  0.00    +0.000 A 
ATOM      4  C22 UNL     1     -26.999 -11.898   4.850  0.00  0.00    +0.000 A 
ATOM      5  C23 UNL     1     -25.836 -12.273   4.180  0.00  0.00    +0.000 A 
ATOM      6  C24 UNL     1     -25.769 -12.171   2.793  0.00  0.00    +0.000 A 
ATOM      7  C25 UNL     1     -26.866 -11.692   2.072  0.00  0.00    +0.000 A 
ENDBRANCH   1   2
BRANCH   1  10
ATOM      8  C9  UNL     1     -29.339 -10.264  -0.506  0.00  0.00    +0.000 C 
ATOM      9  O3  UNL     1     -30.469 -10.732  -0.598  0.00  0.00    +0.000 OA
ATOM     10  N1  UNL     1     -28.684 -10.158   0.697  0.00  0.00    +0.000 N 
ATOM     11  H10 UNL     1     -27.697  -9.935   0.701  0.00  0.00    +0.000 HD
BRANCH   8  15
ATOM     12  C2  UNL     1     -27.162  -8.869  -3.929  0.00  0.00    +0.000 A 
ATOM     13  C3  UNL     1     -26.562  -8.921  -2.666  0.00  0.00    +0.000 A 
ATOM     14  C4  UNL     1     -27.283  -9.382  -1.563  0.00  0.00    +0.000 A 
ATOM     15  C5  UNL     1     -28.614  -9.784  -1.710  0.00  0.00    +0.000 A 
ATOM     16  C6  UNL     1     -29.218  -9.754  -2.973  0.00  0.00    +0.000 A 
ATOM     17  C7  UNL     1     -28.498  -9.295  -4.084  0.00  0.00    +0.000 A 
BRANCH  12  19
ATOM     18  C1  UNL     1     -25.585  -9.295  -5.675  0.00  0.00    +0.000 C 
ATOM     19  O1  UNL     1     -26.534  -8.430  -5.068  0.00  0.00    +0.000 OA
ENDBRANCH  12  19
BRANCH  17  20
ATOM     20  O2  UNL     1     -29.006  -9.225  -5.358  0.00  0.00    +0.000 OA
ATOM     21  C8  UNL     1     -29.595 -10.395  -5.908  0.00  0.00    +0.000 C 
ENDBRANCH  17  20
ENDBRANCH   8  15
ENDBRANCH   1  10
BRANCH   1  22
ATOM     22  C11 UNL     1     -30.113  -9.743   2.727  0.00  0.00    +0.000 C 
ATOM     23  O4  UNL     1     -31.257 -10.017   3.085  0.00  0.00    +0.000 OA
ATOM     24  N2  UNL     1     -29.500  -8.510   2.906  0.00  0.00    +0.000 N 
ATOM     25  H12 UNL     1     -28.565  -8.419   2.501  0.00  0.00    +0.000 HD
BRANCH  24  26
ATOM     26  C12 UNL     1     -29.996  -7.371   3.574  0.00  0.00    +0.000 A 
ATOM     27  C13 UNL     1     -30.371  -6.287   2.766  0.00  0.00    +0.000 A 
ATOM     28  C14 UNL     1     -30.873  -5.095   3.305  0.00  0.00    +0.000 A 
ATOM     29  C15 UNL     1     -30.982  -5.029   4.696  0.00  0.00    +0.000 A 
ATOM     30  C16 UNL     1     -30.617  -6.085   5.526  0.00  0.00    +0.000 A 
ATOM     31  C17 UNL     1     -30.118  -7.274   4.964  0.00  0.00    +0.000 A 
ATOM     32  N3  UNL     1     -30.814  -5.762   6.847  0.00  0.00    +0.000 NA
ATOM     33  C18 UNL     1     -31.280  -4.541   6.846  0.00  0.00    +0.000 A 
ATOM     34  N4  UNL     1     -31.421  -4.058   5.567  0.00  0.00    +0.000 N 
ATOM     35  C19 UNL     1     -31.961  -2.771   5.207  0.00  0.00    +0.000 C 
ATOM     36  N5  UNL     1     -31.590  -3.820   7.938  0.00  0.00    +0.000 N 
ATOM     37  H19 UNL     1     -31.278  -4.258   8.802  0.00  0.00    +0.000 HD
ATOM     38  H20 UNL     1     -31.386  -2.827   7.938  0.00  0.00    +0.000 HD
ENDBRANCH  24  26
ENDBRANCH   1  22
TORSDOF 7
ENDMDL
MODEL 5
REMARK VINA RESULT:    -6.613      4.474      7.427
REMARK INTER + INTRA:         -10.405
REMARK INTER:                  -9.207
REMARK INTRA:                  -1.198
REMARK UNBOUND:                -1.085
REMARK  Name = gant61.pdb
REMARK  10 active torsions:
REMARK  status: ('A' for Active; 'I' for Inactive)
REMARK    1  A    between atoms: C1_1  and  O1_2
REMARK    2  A    between atoms: O1_2  and  C2_3
REMARK    3  A    between atoms: C5_6  and  C9_11
REMARK    4  A    between atoms: C7_8  and  O2_9
REMARK    5  A    between atoms: O2_9  and  C8_10
REMARK    6  A    between atoms: N1_13  and  C10_14
REMARK    7  A    between atoms: C10_14  and  C11_15
REMARK    8  A    between atoms: C10_14  and  C20_29
REMARK    9  A    between atoms: N2_17  and  C12_18
REMARK   10  A    between atoms: N4_26  and  C19_27
REMARK                            x       y       z     vdW  Elec       q    Type
REMARK                         _______ _______ _______ _____ _____    ______ ____
ROOT
ATOM      1  C10 UNL     1     -30.307 -11.365  -2.579  0.00  0.00    +0.000 C 
ENDROOT
BRANCH   1   2
ATOM      2  C20 UNL     1     -29.777 -11.157  -3.992  0.00  0.00    +0.000 A 
ATOM      3  C21 UNL     1     -28.446 -11.453  -4.330  0.00  0.00    +0.000 A 
ATOM      4  C22 UNL     1     -27.966 -11.207  -5.617  0.00  0.00    +0.000 A 
ATOM      5  C23 UNL     1     -28.804 -10.651  -6.581  0.00  0.00    +0.000 A 
ATOM      6  C24 UNL     1     -30.124 -10.343  -6.259  0.00  0.00    +0.000 A 
ATOM      7  C25 UNL     1     -30.607 -10.589  -4.973  0.00  0.00    +0.000 A 
ENDBRANCH   1   2
BRANCH   1  10
ATOM      8  C9  UNL     1     -32.110 -13.080  -2.626  0.00  0.00    +0.000 C 
ATOM      9  O3  UNL     1     -31.328 -13.993  -2.378  0.00  0.00    +0.000 OA
ATOM     10  N1  UNL     1     -31.716 -11.764  -2.664  0.00  0.00    +0.000 N 
ATOM     11  H10 UNL     1     -32.349 -11.073  -3.045  0.00  0.00    +0.000 HD
BRANCH   8  15
ATOM     12  C2  UNL     1     -36.254 -13.801  -3.469  0.00  0.00    +0.000 A 
ATOM     13  C3  UNL     1     -35.663 -12.568  -3.766  0.00  0.00    +0.000 A 
ATOM     14  C4  UNL     1     -34.311 -12.351  -3.489  0.00  0.00    +0.000 A 
ATOM     15  C5  UNL     1     -33.543 -13.360  -2.903  0.00  0.00    +0.000 A 
ATOM     16  C6  UNL     1     -34.120 -14.604  -2.619  0.00  0.00    +0.000 A 
ATOM     17  C7  UNL     1     -35.475 -14.828  -2.897  0.00  0.00    +0.000 A 
BRANCH  12  19
ATOM     18  C1  UNL     1     -38.539 -13.594  -2.794  0.00  0.00    +0.000 C 
ATOM     19  O1  UNL     1     -37.572 -14.104  -3.702  0.00  0.00    +0.000 OA
ENDBRANCH  12  19
BRANCH  17  20
ATOM     20  O2  UNL     1     -36.129 -16.010  -2.650  0.00  0.00    +0.000 OA
ATOM     21  C8  UNL     1     -35.755 -17.152  -3.409  0.00  0.00    +0.000 C 
ENDBRANCH  17  20
ENDBRANCH   8  15
ENDBRANCH   1  10
BRANCH   1  22
ATOM     22  C11 UNL     1     -30.096 -10.146  -1.621  0.00  0.00    +0.000 C 
ATOM     23  O4  UNL     1     -29.256  -9.273  -1.830  0.00  0.00    +0.000 OA
ATOM     24  N2  UNL     1     -30.906 -10.213  -0.494  0.00  0.00    +0.000 N 
ATOM     25  H12 UNL     1     -31.515 -11.032  -0.437  0.00  0.00    +0.000 HD
BRANCH  24  26
ATOM     26  C12 UNL     1     -30.999  -9.300   0.576  0.00  0.00    +0.000 A 
ATOM     27  C13 UNL     1     -32.008  -8.329   0.483  0.00  0.00    +0.000 A 
ATOM     28  C14 UNL     1     -32.202  -7.359   1.475  0.00  0.00    +0.000 A 
ATOM     29  C15 UNL     1     -31.339  -7.398   2.573  0.00  0.00    +0.000 A 
ATOM     30  C16 UNL     1     -30.327  -8.346   2.695  0.00  0.00    +0.000 A 
ATOM     31  C17 UNL     1     -30.151  -9.312   1.688  0.00  0.00    +0.000 A 
ATOM     32  N3  UNL     1     -29.618  -8.161   3.858  0.00  0.00    +0.000 NA
ATOM     33  C18 UNL     1     -30.163  -7.125   4.441  0.00  0.00    +0.000 A 
ATOM     34  N4  UNL     1     -31.223  -6.638   3.715  0.00  0.00    +0.000 N 
ATOM     35  C19 UNL     1     -32.077  -5.543   4.100  0.00  0.00    +0.000 C 
ATOM     36  N5  UNL     1     -29.761  -6.579   5.603  0.00  0.00    +0.000 N 
ATOM     37  H19 UNL     1     -28.872  -6.954   5.927  0.00  0.00    +0.000 HD
ATOM     38  H20 UNL     1     -29.790  -5.571   5.701  0.00  0.00    +0.000 HD
ENDBRANCH  24  26
ENDBRANCH   1  22
TORSDOF 7
ENDMDL
MODEL 6
REMARK VINA RESULT:    -6.604      4.251     10.711
REMARK INTER + INTRA:         -10.391
REMARK INTER:                  -9.277
REMARK INTRA:                  -1.115
REMARK UNBOUND:                -1.085
REMARK  Name = gant61.pdb
REMARK  10 active torsions:
REMARK  status: ('A' for Active; 'I' for Inactive)
REMARK    1  A    between atoms: C1_1  and  O1_2
REMARK    2  A    between atoms: O1_2  and  C2_3
REMARK    3  A    between atoms: C5_6  and  C9_11
REMARK    4  A    between atoms: C7_8  and  O2_9
REMARK    5  A    between atoms: O2_9  and  C8_10
REMARK    6  A    between atoms: N1_13  and  C10_14
REMARK    7  A    between atoms: C10_14  and  C11_15
REMARK    8  A    between atoms: C10_14  and  C20_29
REMARK    9  A    between atoms: N2_17  and  C12_18
REMARK   10  A    between atoms: N4_26  and  C19_27
REMARK                            x       y       z     vdW  Elec       q    Type
REMARK                         _______ _______ _______ _____ _____    ______ ____
ROOT
ATOM      1  C10 UNL     1     -29.312 -10.777  -2.773  0.00  0.00    +0.000 C 
ENDROOT
BRANCH   1   2
ATOM      2  C20 UNL     1     -30.405 -11.753  -3.188  0.00  0.00    +0.000 A 
ATOM      3  C21 UNL     1     -31.746 -11.350  -3.306  0.00  0.00    +0.000 A 
ATOM      4  C22 UNL     1     -32.740 -12.271  -3.637  0.00  0.00    +0.000 A 
ATOM      5  C23 UNL     1     -32.412 -13.610  -3.843  0.00  0.00    +0.000 A 
ATOM      6  C24 UNL     1     -31.089 -14.028  -3.719  0.00  0.00    +0.000 A 
ATOM      7  C25 UNL     1     -30.092 -13.108  -3.389  0.00  0.00    +0.000 A 
ENDBRANCH   1   2
BRANCH   1  10
ATOM      8  C9  UNL     1     -29.979 -10.207  -0.444  0.00  0.00    +0.000 C 
ATOM      9  O3  UNL     1     -29.503 -11.243   0.008  0.00  0.00    +0.000 OA
ATOM     10  N1  UNL     1     -29.863  -9.861  -1.769  0.00  0.00    +0.000 N 
ATOM     11  H10 UNL     1     -30.419  -9.094  -2.127  0.00  0.00    +0.000 HD
BRANCH   8  15
ATOM     12  C2  UNL     1     -32.170  -7.460   2.017  0.00  0.00    +0.000 A 
ATOM     13  C3  UNL     1     -32.484  -7.621   0.663  0.00  0.00    +0.000 A 
ATOM     14  C4  UNL     1     -31.764  -8.523  -0.123  0.00  0.00    +0.000 A 
ATOM     15  C5  UNL     1     -30.717  -9.262   0.434  0.00  0.00    +0.000 A 
ATOM     16  C6  UNL     1     -30.407  -9.122   1.793  0.00  0.00    +0.000 A 
ATOM     17  C7  UNL     1     -31.128  -8.221   2.588  0.00  0.00    +0.000 A 
BRANCH  12  19
ATOM     18  C1  UNL     1     -34.143  -6.931   3.261  0.00  0.00    +0.000 C 
ATOM     19  O1  UNL     1     -32.820  -6.598   2.866  0.00  0.00    +0.000 OA
ENDBRANCH  12  19
BRANCH  17  20
ATOM     20  O2  UNL     1     -30.896  -8.012   3.925  0.00  0.00    +0.000 OA
ATOM     21  C8  UNL     1     -31.020  -9.120   4.806  0.00  0.00    +0.000 C 
ENDBRANCH  17  20
ENDBRANCH   8  15
ENDBRANCH   1  10
BRANCH   1  22
ATOM     22  C11 UNL     1     -28.637 -10.014  -3.961  0.00  0.00    +0.000 C 
ATOM     23  O4  UNL     1     -29.070  -8.950  -4.399  0.00  0.00    +0.000 OA
ATOM     24  N2  UNL     1     -27.559 -10.711  -4.492  0.00  0.00    +0.000 N 
ATOM     25  H12 UNL     1     -27.355 -11.611  -4.052  0.00  0.00    +0.000 HD
BRANCH  24  26
ATOM     26  C12 UNL     1     -26.709 -10.338  -5.554  0.00  0.00    +0.000 A 
ATOM     27  C13 UNL     1     -27.201 -10.547  -6.851  0.00  0.00    +0.000 A 
ATOM     28  C14 UNL     1     -26.454 -10.226  -7.992  0.00  0.00    +0.000 A 
ATOM     29  C15 UNL     1     -25.184  -9.684  -7.782  0.00  0.00    +0.000 A 
ATOM     30  C16 UNL     1     -24.665  -9.465  -6.509  0.00  0.00    +0.000 A 
ATOM     31  C17 UNL     1     -25.433  -9.793  -5.377  0.00  0.00    +0.000 A 
ATOM     32  N3  UNL     1     -23.400  -8.934  -6.579  0.00  0.00    +0.000 NA
ATOM     33  C18 UNL     1     -23.131  -8.831  -7.854  0.00  0.00    +0.000 A 
ATOM     34  N4  UNL     1     -24.187  -9.251  -8.627  0.00  0.00    +0.000 N 
ATOM     35  C19 UNL     1     -24.245  -9.217 -10.067  0.00  0.00    +0.000 C 
ATOM     36  N5  UNL     1     -21.978  -8.376  -8.378  0.00  0.00    +0.000 N 
ATOM     37  H19 UNL     1     -21.248  -8.260  -7.679  0.00  0.00    +0.000 HD
ATOM     38  H20 UNL     1     -21.616  -8.821  -9.214  0.00  0.00    +0.000 HD
ENDBRANCH  24  26
ENDBRANCH   1  22
TORSDOF 7
ENDMDL
MODEL 7
REMARK VINA RESULT:    -6.582      5.215      7.843
REMARK INTER + INTRA:         -10.361
REMARK INTER:                  -9.092
REMARK INTRA:                  -1.269
REMARK UNBOUND:                -1.085
REMARK  Name = gant61.pdb
REMARK  10 active torsions:
REMARK  status: ('A' for Active; 'I' for Inactive)
REMARK    1  A    between atoms: C1_1  and  O1_2
REMARK    2  A    between atoms: O1_2  and  C2_3
REMARK    3  A    between atoms: C5_6  and  C9_11
REMARK    4  A    between atoms: C7_8  and  O2_9
REMARK    5  A    between atoms: O2_9  and  C8_10
REMARK    6  A    between atoms: N1_13  and  C10_14
REMARK    7  A    between atoms: C10_14  and  C11_15
REMARK    8  A    between atoms: C10_14  and  C20_29
REMARK    9  A    between atoms: N2_17  and  C12_18
REMARK   10  A    between atoms: N4_26  and  C19_27
REMARK                            x       y       z     vdW  Elec       q    Type
REMARK                         _______ _______ _______ _____ _____    ______ ____
ROOT
ATOM      1  C10 UNL     1     -33.338  -5.410   5.274  0.00  0.00    +0.000 C 
ENDROOT
BRANCH   1   2
ATOM      2  C20 UNL     1     -32.372  -4.272   5.572  0.00  0.00    +0.000 A 
ATOM      3  C21 UNL     1     -31.079  -4.241   5.023  0.00  0.00    +0.000 A 
ATOM      4  C22 UNL     1     -30.190  -3.216   5.349  0.00  0.00    +0.000 A 
ATOM      5  C23 UNL     1     -30.575  -2.214   6.236  0.00  0.00    +0.000 A 
ATOM      6  C24 UNL     1     -31.849  -2.235   6.798  0.00  0.00    +0.000 A 
ATOM      7  C25 UNL     1     -32.741  -3.259   6.472  0.00  0.00    +0.000 A 
ENDBRANCH   1   2
BRANCH   1  10
ATOM      8  C9  UNL     1     -32.920  -7.419   3.865  0.00  0.00    +0.000 C 
ATOM      9  O3  UNL     1     -33.386  -8.179   4.707  0.00  0.00    +0.000 OA
ATOM     10  N1  UNL     1     -32.928  -6.053   4.021  0.00  0.00    +0.000 N 
ATOM     11  H10 UNL     1     -32.379  -5.483   3.390  0.00  0.00    +0.000 HD
BRANCH   8  15
ATOM     12  C2  UNL     1     -31.224  -8.880   0.205  0.00  0.00    +0.000 A 
ATOM     13  C3  UNL     1     -32.241  -7.919   0.194  0.00  0.00    +0.000 A 
ATOM     14  C4  UNL     1     -32.779  -7.451   1.394  0.00  0.00    +0.000 A 
ATOM     15  C5  UNL     1     -32.314  -7.947   2.615  0.00  0.00    +0.000 A 
ATOM     16  C6  UNL     1     -31.282  -8.895   2.638  0.00  0.00    +0.000 A 
ATOM     17  C7  UNL     1     -30.736  -9.366   1.437  0.00  0.00    +0.000 A 
BRANCH  12  19
ATOM     18  C1  UNL     1     -31.485  -9.988  -1.897  0.00  0.00    +0.000 C 
ATOM     19  O1  UNL     1     -30.637  -9.400  -0.922  0.00  0.00    +0.000 OA
ENDBRANCH  12  19
BRANCH  17  20
ATOM     20  O2  UNL     1     -29.728 -10.295   1.358  0.00  0.00    +0.000 OA
ATOM     21  C8  UNL     1     -28.556 -10.076   2.131  0.00  0.00    +0.000 C 
ENDBRANCH  17  20
ENDBRANCH   8  15
ENDBRANCH   1  10
BRANCH   1  22
ATOM     22  C11 UNL     1     -34.847  -4.994   5.258  0.00  0.00    +0.000 C 
ATOM     23  O4  UNL     1     -35.617  -5.251   6.181  0.00  0.00    +0.000 OA
ATOM     24  N2  UNL     1     -35.213  -4.379   4.067  0.00  0.00    +0.000 N 
ATOM     25  H12 UNL     1     -34.469  -4.285   3.372  0.00  0.00    +0.000 HD
BRANCH  24  26
ATOM     26  C12 UNL     1     -36.472  -3.866   3.695  0.00  0.00    +0.000 A 
ATOM     27  C13 UNL     1     -36.614  -2.470   3.732  0.00  0.00    +0.000 A 
ATOM     28  C14 UNL     1     -37.816  -1.834   3.394  0.00  0.00    +0.000 A 
ATOM     29  C15 UNL     1     -38.879  -2.656   3.015  0.00  0.00    +0.000 A 
ATOM     30  C16 UNL     1     -38.773  -4.044   2.969  0.00  0.00    +0.000 A 
ATOM     31  C17 UNL     1     -37.557  -4.661   3.311  0.00  0.00    +0.000 A 
ATOM     32  N3  UNL     1     -39.959  -4.615   2.575  0.00  0.00    +0.000 NA
ATOM     33  C18 UNL     1     -40.785  -3.618   2.388  0.00  0.00    +0.000 A 
ATOM     34  N4  UNL     1     -40.175  -2.409   2.620  0.00  0.00    +0.000 N 
ATOM     35  C19 UNL     1     -40.781  -1.112   2.451  0.00  0.00    +0.000 C 
ATOM     36  N5  UNL     1     -42.073  -3.727   2.018  0.00  0.00    +0.000 N 
ATOM     37  H19 UNL     1     -42.411  -4.687   2.045  0.00  0.00    +0.000 HD
ATOM     38  H20 UNL     1     -42.751  -3.091   2.423  0.00  0.00    +0.000 HD
ENDBRANCH  24  26
ENDBRANCH   1  22
TORSDOF 7
ENDMDL
MODEL 8
REMARK VINA RESULT:    -6.467      2.781      4.569
REMARK INTER + INTRA:         -10.199
REMARK INTER:                  -9.314
REMARK INTRA:                  -0.885
REMARK UNBOUND:                -1.085
REMARK  Name = gant61.pdb
REMARK  10 active torsions:
REMARK  status: ('A' for Active; 'I' for Inactive)
REMARK    1  A    between atoms: C1_1  and  O1_2
REMARK    2  A    between atoms: O1_2  and  C2_3
REMARK    3  A    between atoms: C5_6  and  C9_11
REMARK    4  A    between atoms: C7_8  and  O2_9
REMARK    5  A    between atoms: O2_9  and  C8_10
REMARK    6  A    between atoms: N1_13  and  C10_14
REMARK    7  A    between atoms: C10_14  and  C11_15
REMARK    8  A    between atoms: C10_14  and  C20_29
REMARK    9  A    between atoms: N2_17  and  C12_18
REMARK   10  A    between atoms: N4_26  and  C19_27
REMARK                            x       y       z     vdW  Elec       q    Type
REMARK                         _______ _______ _______ _____ _____    ______ ____
ROOT
ATOM      1  C10 UNL     1     -30.582 -10.589  -2.252  0.00  0.00    +0.000 C 
ENDROOT
BRANCH   1   2
ATOM      2  C20 UNL     1     -30.759 -12.076  -1.981  0.00  0.00    +0.000 A 
ATOM      3  C21 UNL     1     -29.712 -12.860  -1.466  0.00  0.00    +0.000 A 
ATOM      4  C22 UNL     1     -29.877 -14.232  -1.273  0.00  0.00    +0.000 A 
ATOM      5  C23 UNL     1     -31.085 -14.843  -1.603  0.00  0.00    +0.000 A 
ATOM      6  C24 UNL     1     -32.129 -14.083  -2.124  0.00  0.00    +0.000 A 
ATOM      7  C25 UNL     1     -31.967 -12.710  -2.318  0.00  0.00    +0.000 A 
ENDBRANCH   1   2
BRANCH   1  10
ATOM      8  C9  UNL     1     -29.987 -10.411  -4.663  0.00  0.00    +0.000 C 
ATOM      9  O3  UNL     1     -31.163 -10.391  -5.012  0.00  0.00    +0.000 OA
ATOM     10  N1  UNL     1     -29.612 -10.426  -3.341  0.00  0.00    +0.000 N 
ATOM     11  H10 UNL     1     -28.647 -10.621  -3.106  0.00  0.00    +0.000 HD
BRANCH   8  15
ATOM     12  C2  UNL     1     -26.778 -10.388  -7.510  0.00  0.00    +0.000 A 
ATOM     13  C3  UNL     1     -26.691  -9.656  -6.321  0.00  0.00    +0.000 A 
ATOM     14  C4  UNL     1     -27.743  -9.677  -5.403  0.00  0.00    +0.000 A 
ATOM     15  C5  UNL     1     -28.895 -10.421  -5.670  0.00  0.00    +0.000 A 
ATOM     16  C6  UNL     1     -28.984 -11.174  -6.849  0.00  0.00    +0.000 A 
ATOM     17  C7  UNL     1     -27.931 -11.158  -7.772  0.00  0.00    +0.000 A 
BRANCH  12  19
ATOM     18  C1  UNL     1     -25.560  -9.241  -9.219  0.00  0.00    +0.000 C 
ATOM     19  O1  UNL     1     -25.798 -10.425  -8.471  0.00  0.00    +0.000 OA
ENDBRANCH  12  19
BRANCH  17  20
ATOM     20  O2  UNL     1     -27.929 -11.857  -8.954  0.00  0.00    +0.000 OA
ATOM     21  C8  UNL     1     -29.123 -11.871  -9.724  0.00  0.00    +0.000 C 
ENDBRANCH  17  20
ENDBRANCH   8  15
ENDBRANCH   1  10
BRANCH   1  22
ATOM     22  C11 UNL     1     -30.205  -9.739  -0.994  0.00  0.00    +0.000 C 
ATOM     23  O4  UNL     1     -29.042  -9.533  -0.655  0.00  0.00    +0.000 OA
ATOM     24  N2  UNL     1     -31.324  -9.320  -0.284  0.00  0.00    +0.000 N 
ATOM     25  H12 UNL     1     -32.225  -9.619  -0.664  0.00  0.00    +0.000 HD
BRANCH  24  26
ATOM     26  C12 UNL     1     -31.378  -8.537   0.887  0.00  0.00    +0.000 A 
ATOM     27  C13 UNL     1     -32.450  -7.637   0.988  0.00  0.00    +0.000 A 
ATOM     28  C14 UNL     1     -32.616  -6.796   2.097  0.00  0.00    +0.000 A 
ATOM     29  C15 UNL     1     -31.657  -6.891   3.108  0.00  0.00    +0.000 A 
ATOM     30  C16 UNL     1     -30.581  -7.772   3.039  0.00  0.00    +0.000 A 
ATOM     31  C17 UNL     1     -30.435  -8.608   1.918  0.00  0.00    +0.000 A 
ATOM     32  N3  UNL     1     -29.785  -7.663   4.153  0.00  0.00    +0.000 NA
ATOM     33  C18 UNL     1     -30.339  -6.738   4.893  0.00  0.00    +0.000 A 
ATOM     34  N4  UNL     1     -31.488  -6.253   4.316  0.00  0.00    +0.000 N 
ATOM     35  C19 UNL     1     -32.371  -5.271   4.892  0.00  0.00    +0.000 C 
ATOM     36  N5  UNL     1     -29.870  -6.294   6.073  0.00  0.00    +0.000 N 
ATOM     37  H19 UNL     1     -28.934  -6.636   6.279  0.00  0.00    +0.000 HD
ATOM     38  H20 UNL     1     -29.953  -5.306   6.288  0.00  0.00    +0.000 HD
ENDBRANCH  24  26
ENDBRANCH   1  22
TORSDOF 7
ENDMDL
MODEL 9
REMARK VINA RESULT:    -6.454      3.299      5.854
REMARK INTER + INTRA:         -10.181
REMARK INTER:                  -9.063
REMARK INTRA:                  -1.117
REMARK UNBOUND:                -1.085
REMARK  Name = gant61.pdb
REMARK  10 active torsions:
REMARK  status: ('A' for Active; 'I' for Inactive)
REMARK    1  A    between atoms: C1_1  and  O1_2
REMARK    2  A    between atoms: O1_2  and  C2_3
REMARK    3  A    between atoms: C5_6  and  C9_11
REMARK    4  A    between atoms: C7_8  and  O2_9
REMARK    5  A    between atoms: O2_9  and  C8_10
REMARK    6  A    between atoms: N1_13  and  C10_14
REMARK    7  A    between atoms: C10_14  and  C11_15
REMARK    8  A    between atoms: C10_14  and  C20_29
REMARK    9  A    between atoms: N2_17  and  C12_18
REMARK   10  A    between atoms: N4_26  and  C19_27
REMARK                            x       y       z     vdW  Elec       q    Type
REMARK                         _______ _______ _______ _____ _____    ______ ____
ROOT
ATOM      1  C10 UNL     1     -29.680 -10.469  -3.717  0.00  0.00    +0.000 C 
ENDROOT
BRANCH   1   2
ATOM      2  C20 UNL     1     -29.916 -11.970  -3.622  0.00  0.00    +0.000 A 
ATOM      3  C21 UNL     1     -28.976 -12.827  -3.025  0.00  0.00    +0.000 A 
ATOM      4  C22 UNL     1     -29.187 -14.207  -2.993  0.00  0.00    +0.000 A 
ATOM      5  C23 UNL     1     -30.333 -14.751  -3.569  0.00  0.00    +0.000 A 
ATOM      6  C24 UNL     1     -31.270 -13.917  -4.175  0.00  0.00    +0.000 A 
ATOM      7  C25 UNL     1     -31.062 -12.536  -4.206  0.00  0.00    +0.000 A 
ENDBRANCH   1   2
BRANCH   1  10
ATOM      8  C9  UNL     1     -28.519 -10.121  -5.891  0.00  0.00    +0.000 C 
ATOM      9  O3  UNL     1     -29.574 -10.061  -6.512  0.00  0.00    +0.000 OA
ATOM     10  N1  UNL     1     -28.476 -10.237  -4.522  0.00  0.00    +0.000 N 
ATOM     11  H10 UNL     1     -27.596 -10.460  -4.075  0.00  0.00    +0.000 HD
BRANCH   8  15
ATOM     12  C2  UNL     1     -24.713  -9.927  -7.862  0.00  0.00    +0.000 A 
ATOM     13  C3  UNL     1     -24.910  -9.322  -6.615  0.00  0.00    +0.000 A 
ATOM     14  C4  UNL     1     -26.154  -9.398  -5.985  0.00  0.00    +0.000 A 
ATOM     15  C5  UNL     1     -27.214 -10.069  -6.600  0.00  0.00    +0.000 A 
ATOM     16  C6  UNL     1     -27.022 -10.695  -7.839  0.00  0.00    +0.000 A 
ATOM     17  C7  UNL     1     -25.776 -10.624  -8.474  0.00  0.00    +0.000 A 
BRANCH  12  19
ATOM     18  C1  UNL     1     -22.835  -8.666  -8.636  0.00  0.00    +0.000 C 
ATOM     19  O1  UNL     1     -23.529  -9.903  -8.556  0.00  0.00    +0.000 OA
ENDBRANCH  12  19
BRANCH  17  20
ATOM     20  O2  UNL     1     -25.494 -11.200  -9.689  0.00  0.00    +0.000 OA
ATOM     21  C8  UNL     1     -25.958 -10.547 -10.862  0.00  0.00    +0.000 C 
ENDBRANCH  17  20
ENDBRANCH   8  15
ENDBRANCH   1  10
BRANCH   1  22
ATOM     22  C11 UNL     1     -29.619  -9.733  -2.337  0.00  0.00    +0.000 C 
ATOM     23  O4  UNL     1     -28.580  -9.263  -1.880  0.00  0.00    +0.000 OA
ATOM     24  N2  UNL     1     -30.843  -9.742  -1.679  0.00  0.00    +0.000 N 
ATOM     25  H12 UNL     1     -31.603 -10.221  -2.167  0.00  0.00    +0.000 HD
BRANCH  24  26
ATOM     26  C12 UNL     1     -31.172  -9.175  -0.431  0.00  0.00    +0.000 A 
ATOM     27  C13 UNL     1     -32.085  -8.111  -0.449  0.00  0.00    +0.000 A 
ATOM     28  C14 UNL     1     -32.490  -7.455   0.722  0.00  0.00    +0.000 A 
ATOM     29  C15 UNL     1     -31.939  -7.911   1.922  0.00  0.00    +0.000 A 
ATOM     30  C16 UNL     1     -31.029  -8.963   1.975  0.00  0.00    +0.000 A 
ATOM     31  C17 UNL     1     -30.638  -9.608   0.788  0.00  0.00    +0.000 A 
ATOM     32  N3  UNL     1     -30.636  -9.207   3.269  0.00  0.00    +0.000 NA
ATOM     33  C18 UNL     1     -31.271  -8.331   4.002  0.00  0.00    +0.000 A 
ATOM     34  N4  UNL     1     -32.091  -7.535   3.237  0.00  0.00    +0.000 N 
ATOM     35  C19 UNL     1     -32.973  -6.509   3.734  0.00  0.00    +0.000 C 
ATOM     36  N5  UNL     1     -31.160  -8.196   5.335  0.00  0.00    +0.000 N 
ATOM     37  H19 UNL     1     -30.399  -8.749   5.725  0.00  0.00    +0.000 HD
ATOM     38  H20 UNL     1     -31.175  -7.264   5.733  0.00  0.00    +0.000 HD
ENDBRANCH  24  26
ENDBRANCH   1  22
TORSDOF 7
ENDMDL
MODEL 10
REMARK VINA RESULT:    -6.382      3.763     10.309
REMARK INTER + INTRA:         -10.079
REMARK INTER:                  -9.103
REMARK INTRA:                  -0.976
REMARK UNBOUND:                -1.085
REMARK  Name = gant61.pdb
REMARK  10 active torsions:
REMARK  status: ('A' for Active; 'I' for Inactive)
REMARK    1  A    between atoms: C1_1  and  O1_2
REMARK    2  A    between atoms: O1_2  and  C2_3
REMARK    3  A    between atoms: C5_6  and  C9_11
REMARK    4  A    between atoms: C7_8  and  O2_9
REMARK    5  A    between atoms: O2_9  and  C8_10
REMARK    6  A    between atoms: N1_13  and  C10_14
REMARK    7  A    between atoms: C10_14  and  C11_15
REMARK    8  A    between atoms: C10_14  and  C20_29
REMARK    9  A    between atoms: N2_17  and  C12_18
REMARK   10  A    between atoms: N4_26  and  C19_27
REMARK                            x       y       z     vdW  Elec       q    Type
REMARK                         _______ _______ _______ _____ _____    ______ ____
ROOT
ATOM      1  C10 UNL     1     -28.730 -10.491  -1.361  0.00  0.00    +0.000 C 
ENDROOT
BRANCH   1   2
ATOM      2  C20 UNL     1     -30.040 -10.946  -1.987  0.00  0.00    +0.000 A 
ATOM      3  C21 UNL     1     -30.390 -12.306  -2.056  0.00  0.00    +0.000 A 
ATOM      4  C22 UNL     1     -31.572 -12.707  -2.680  0.00  0.00    +0.000 A 
ATOM      5  C23 UNL     1     -32.415 -11.758  -3.255  0.00  0.00    +0.000 A 
ATOM      6  C24 UNL     1     -32.078 -10.408  -3.205  0.00  0.00    +0.000 A 
ATOM      7  C25 UNL     1     -30.897 -10.004  -2.580  0.00  0.00    +0.000 A 
ENDBRANCH   1   2
BRANCH   1  10
ATOM      8  C9  UNL     1     -29.273 -10.106   1.037  0.00  0.00    +0.000 C 
ATOM      9  O3  UNL     1     -29.105 -11.286   1.325  0.00  0.00    +0.000 OA
ATOM     10  N1  UNL     1     -29.036  -9.615  -0.224  0.00  0.00    +0.000 N 
ATOM     11  H10 UNL     1     -29.356  -8.684  -0.457  0.00  0.00    +0.000 HD
BRANCH   8  15
ATOM     12  C2  UNL     1     -30.568  -7.323   4.035  0.00  0.00    +0.000 A 
ATOM     13  C3  UNL     1     -29.452  -8.141   4.246  0.00  0.00    +0.000 A 
ATOM     14  C4  UNL     1     -29.041  -9.038   3.258  0.00  0.00    +0.000 A 
ATOM     15  C5  UNL     1     -29.748  -9.135   2.056  0.00  0.00    +0.000 A 
ATOM     16  C6  UNL     1     -30.855  -8.306   1.828  0.00  0.00    +0.000 A 
ATOM     17  C7  UNL     1     -31.270  -7.402   2.813  0.00  0.00    +0.000 A 
BRANCH  12  19
ATOM     18  C1  UNL     1     -31.561  -6.917   6.172  0.00  0.00    +0.000 C 
ATOM     19  O1  UNL     1     -31.046  -6.415   4.947  0.00  0.00    +0.000 OA
ENDBRANCH  12  19
BRANCH  17  20
ATOM     20  O2  UNL     1     -32.342  -6.555   2.683  0.00  0.00    +0.000 OA
ATOM     21  C8  UNL     1     -33.645  -7.122   2.673  0.00  0.00    +0.000 C 
ENDBRANCH  17  20
ENDBRANCH   8  15
ENDBRANCH   1  10
BRANCH   1  22
ATOM     22  C11 UNL     1     -27.727  -9.828  -2.363  0.00  0.00    +0.000 C 
ATOM     23  O4  UNL     1     -27.094  -8.809  -2.094  0.00  0.00    +0.000 OA
ATOM     24  N2  UNL     1     -27.699 -10.478  -3.591  0.00  0.00    +0.000 N 
ATOM     25  H12 UNL     1     -28.326 -11.281  -3.679  0.00  0.00    +0.000 HD
BRANCH  24  26
ATOM     26  C12 UNL     1     -26.920 -10.176  -4.726  0.00  0.00    +0.000 A 
ATOM     27  C13 UNL     1     -27.537 -10.356  -5.974  0.00  0.00    +0.000 A 
ATOM     28  C14 UNL     1     -26.870 -10.099  -7.179  0.00  0.00    +0.000 A 
ATOM     29  C15 UNL     1     -25.549  -9.653  -7.086  0.00  0.00    +0.000 A 
ATOM     30  C16 UNL     1     -24.907  -9.466  -5.865  0.00  0.00    +0.000 A 
ATOM     31  C17 UNL     1     -25.596  -9.728  -4.667  0.00  0.00    +0.000 A 
ATOM     32  N3  UNL     1     -23.616  -9.032  -6.050  0.00  0.00    +0.000 NA
ATOM     33  C18 UNL     1     -23.452  -8.957  -7.345  0.00  0.00    +0.000 A 
ATOM     34  N4  UNL     1     -24.599  -9.302  -8.019  0.00  0.00    +0.000 N 
ATOM     35  C19 UNL     1     -24.780  -9.273  -9.448  0.00  0.00    +0.000 C 
ATOM     36  N5  UNL     1     -22.319  -8.595  -7.972  0.00  0.00    +0.000 N 
ATOM     37  H19 UNL     1     -21.523  -8.529  -7.340  0.00  0.00    +0.000 HD
ATOM     38  H20 UNL     1     -22.064  -9.071  -8.830  0.00  0.00    +0.000 HD
ENDBRANCH  24  26
ENDBRANCH   1  22
TORSDOF 7
ENDMDL
