MODEL 1
REMARK VINA RESULT:    -5.928      0.000      0.000
REMARK INTER + INTRA:         -10.275
REMARK INTER:                  -8.355
REMARK INTRA:                  -1.920
REMARK UNBOUND:                -1.920
REMARK  Name = gant61.pdb
REMARK  11 active torsions:
REMARK  status: ('A' for Active; 'I' for Inactive)
REMARK    1  A    between atoms: C1_1  and  N1_2
REMARK    2  A    between atoms: N1_2  and  C2_3
REMARK    3  A    between atoms: N1_2  and  C3_4
REMARK    4  A    between atoms: C8_9  and  C9_10
REMARK    5  A    between atoms: C9_10  and  N2_11
REMARK    6  A    between atoms: N3_15  and  C19_23
REMARK    7  A    between atoms: C13_16  and  C14_17
REMARK    8  A    between atoms: C19_23  and  C20_24
REMARK    9  A    between atoms: C25_29  and  N5_30
REMARK   10  A    between atoms: N5_30  and  C26_31
REMARK   11  A    between atoms: N5_30  and  C27_32
REMARK                            x       y       z     vdW  Elec       q    Type
REMARK                         _______ _______ _______ _____ _____    ______ ____
ROOT
ATOM      1  N2  UNL     1     -28.266 -10.005  -3.002  0.00  0.00    +0.000 NA
ATOM      2  C10 UNL     1     -27.275  -9.340  -2.154  0.00  0.00    +0.000 C 
ATOM      3  C11 UNL     1     -26.976 -10.193  -0.929  0.00  0.00    +0.000 C 
ATOM      4  C12 UNL     1     -28.253 -10.521  -0.161  0.00  0.00    +0.000 C 
ATOM      5  N3  UNL     1     -29.433 -10.025  -0.852  0.00  0.00    +0.000 NA
ATOM      6  C13 UNL     1     -29.505 -10.372  -2.279  0.00  0.00    +0.000 C 
ENDROOT
BRANCH   6   7
ATOM      7  C14 UNL     1     -29.885 -11.829  -2.562  0.00  0.00    +0.000 A 
ATOM      8  C15 UNL     1     -28.968 -12.881  -2.458  0.00  0.00    +0.000 A 
ATOM      9  C16 UNL     1     -29.388 -14.174  -2.732  0.00  0.00    +0.000 A 
ATOM     10  N4  UNL     1     -30.645 -14.497  -3.101  0.00  0.00    +0.000 NA
ATOM     11  C17 UNL     1     -31.515 -13.472  -3.214  0.00  0.00    +0.000 A 
ATOM     12  C18 UNL     1     -31.191 -12.149  -2.958  0.00  0.00    +0.000 A 
ENDBRANCH   6   7
BRANCH   5  13
ATOM     13  C19 UNL     1     -30.692 -10.272  -0.137  0.00  0.00    +0.000 C 
BRANCH  13  14
ATOM     14  C20 UNL     1     -31.259  -9.037   0.543  0.00  0.00    +0.000 A 
ATOM     15  C21 UNL     1     -31.962  -8.096  -0.237  0.00  0.00    +0.000 A 
ATOM     16  C22 UNL     1     -32.496  -6.944   0.336  0.00  0.00    +0.000 A 
ATOM     17  C23 UNL     1     -32.336  -6.714   1.697  0.00  0.00    +0.000 A 
ATOM     18  C24 UNL     1     -31.635  -7.632   2.482  0.00  0.00    +0.000 A 
ATOM     19  C25 UNL     1     -31.079  -8.798   1.926  0.00  0.00    +0.000 A 
BRANCH  19  20
ATOM     20  N5  UNL     1     -30.366  -9.731   2.716  0.00  0.00    +0.000 N 
ATOM     21  C26 UNL     1     -29.075  -9.254   3.211  0.00  0.00    +0.000 C 
ATOM     22  C27 UNL     1     -31.233 -10.300   3.754  0.00  0.00    +0.000 C 
ENDBRANCH  19  20
ENDBRANCH  13  14
ENDBRANCH   5  13
BRANCH   1  23
ATOM     23  C9  UNL     1     -28.560  -9.150  -4.176  0.00  0.00    +0.000 C 
BRANCH  23  29
ATOM     24  C3  UNL     1     -27.469 -10.258  -6.215  0.00  0.00    +0.000 A 
ATOM     25  C4  UNL     1     -27.615 -10.945  -7.433  0.00  0.00    +0.000 A 
ATOM     26  C5  UNL     1     -28.876 -11.273  -7.934  0.00  0.00    +0.000 A 
ATOM     27  C6  UNL     1     -30.017 -10.928  -7.219  0.00  0.00    +0.000 A 
ATOM     28  C7  UNL     1     -29.894 -10.254  -6.006  0.00  0.00    +0.000 A 
ATOM     29  C8  UNL     1     -28.630  -9.900  -5.496  0.00  0.00    +0.000 A 
BRANCH  24  31
ATOM     30  C1  UNL     1     -25.394  -9.108  -6.599  0.00  0.00    +0.000 C 
ATOM     31  N1  UNL     1     -26.192  -9.937  -5.693  0.00  0.00    +0.000 N 
ATOM     32  C2  UNL     1     -25.500 -11.134  -5.207  0.00  0.00    +0.000 C 
ENDBRANCH  24  31
ENDBRANCH  23  29
ENDBRANCH   1  23
TORSDOF 7
ENDMDL
MODEL 2
REMARK VINA RESULT:    -5.892      0.883      1.898
REMARK INTER + INTRA:         -10.222
REMARK INTER:                  -8.343
REMARK INTRA:                  -1.879
REMARK UNBOUND:                -1.920
REMARK  Name = gant61.pdb
REMARK  11 active torsions:
REMARK  status: ('A' for Active; 'I' for Inactive)
REMARK    1  A    between atoms: C1_1  and  N1_2
REMARK    2  A    between atoms: N1_2  and  C2_3
REMARK    3  A    between atoms: N1_2  and  C3_4
REMARK    4  A    between atoms: C8_9  and  C9_10
REMARK    5  A    between atoms: C9_10  and  N2_11
REMARK    6  A    between atoms: N3_15  and  C19_23
REMARK    7  A    between atoms: C13_16  and  C14_17
REMARK    8  A    between atoms: C19_23  and  C20_24
REMARK    9  A    between atoms: C25_29  and  N5_30
REMARK   10  A    between atoms: N5_30  and  C26_31
REMARK   11  A    between atoms: N5_30  and  C27_32
REMARK                            x       y       z     vdW  Elec       q    Type
REMARK                         _______ _______ _______ _____ _____    ______ ____
ROOT
ATOM      1  N2  UNL     1     -28.058 -10.026  -2.861  0.00  0.00    +0.000 NA
ATOM      2  C10 UNL     1     -27.081  -9.350  -2.006  0.00  0.00    +0.000 C 
ATOM      3  C11 UNL     1     -26.753 -10.217  -0.798  0.00  0.00    +0.000 C 
ATOM      4  C12 UNL     1     -28.017 -10.594  -0.030  0.00  0.00    +0.000 C 
ATOM      5  N3  UNL     1     -29.213 -10.118  -0.706  0.00  0.00    +0.000 NA
ATOM      6  C13 UNL     1     -29.283 -10.441  -2.139  0.00  0.00    +0.000 C 
ENDROOT
BRANCH   6   7
ATOM      7  C14 UNL     1     -29.624 -11.902  -2.447  0.00  0.00    +0.000 A 
ATOM      8  C15 UNL     1     -28.673 -12.927  -2.388  0.00  0.00    +0.000 A 
ATOM      9  C16 UNL     1     -29.059 -14.226  -2.682  0.00  0.00    +0.000 A 
ATOM     10  N4  UNL     1     -30.313 -14.580  -3.031  0.00  0.00    +0.000 NA
ATOM     11  C17 UNL     1     -31.217 -13.581  -3.101  0.00  0.00    +0.000 A 
ATOM     12  C18 UNL     1     -30.929 -12.254  -2.822  0.00  0.00    +0.000 A 
ENDBRANCH   6   7
BRANCH   5  13
ATOM     13  C19 UNL     1     -30.461 -10.413   0.009  0.00  0.00    +0.000 C 
BRANCH  13  14
ATOM     14  C20 UNL     1     -31.135  -9.182   0.591  0.00  0.00    +0.000 A 
ATOM     15  C21 UNL     1     -31.826  -8.312  -0.277  0.00  0.00    +0.000 A 
ATOM     16  C22 UNL     1     -32.456  -7.167   0.204  0.00  0.00    +0.000 A 
ATOM     17  C23 UNL     1     -32.404  -6.871   1.561  0.00  0.00    +0.000 A 
ATOM     18  C24 UNL     1     -31.716  -7.717   2.434  0.00  0.00    +0.000 A 
ATOM     19  C25 UNL     1     -31.066  -8.875   1.971  0.00  0.00    +0.000 A 
BRANCH  19  20
ATOM     20  N5  UNL     1     -30.365  -9.735   2.851  0.00  0.00    +0.000 N 
ATOM     21  C26 UNL     1     -29.119  -9.184   3.383  0.00  0.00    +0.000 C 
ATOM     22  C27 UNL     1     -31.267 -10.275   3.874  0.00  0.00    +0.000 C 
ENDBRANCH  19  20
ENDBRANCH  13  14
ENDBRANCH   5  13
BRANCH   1  23
ATOM     23  C9  UNL     1     -28.381  -9.159  -4.018  0.00  0.00    +0.000 C 
BRANCH  23  29
ATOM     24  C3  UNL     1     -27.974 -10.365  -6.243  0.00  0.00    +0.000 A 
ATOM     25  C4  UNL     1     -27.152 -10.575  -7.365  0.00  0.00    +0.000 A 
ATOM     26  C5  UNL     1     -25.946  -9.890  -7.520  0.00  0.00    +0.000 A 
ATOM     27  C6  UNL     1     -25.542  -8.972  -6.558  0.00  0.00    +0.000 A 
ATOM     28  C7  UNL     1     -26.344  -8.743  -5.442  0.00  0.00    +0.000 A 
ATOM     29  C8  UNL     1     -27.556  -9.439  -5.263  0.00  0.00    +0.000 A 
BRANCH  24  31
ATOM     30  C1  UNL     1     -29.062 -12.501  -6.082  0.00  0.00    +0.000 C 
ATOM     31  N1  UNL     1     -29.207 -11.044  -6.090  0.00  0.00    +0.000 N 
ATOM     32  C2  UNL     1     -30.210 -10.544  -7.033  0.00  0.00    +0.000 C 
ENDBRANCH  24  31
ENDBRANCH  23  29
ENDBRANCH   1  23
TORSDOF 7
ENDMDL
MODEL 3
REMARK VINA RESULT:    -5.730      1.492      7.996
REMARK INTER + INTRA:          -9.995
REMARK INTER:                  -8.340
REMARK INTRA:                  -1.656
REMARK UNBOUND:                -1.920
REMARK  Name = gant61.pdb
REMARK  11 active torsions:
REMARK  status: ('A' for Active; 'I' for Inactive)
REMARK    1  A    between atoms: C1_1  and  N1_2
REMARK    2  A    between atoms: N1_2  and  C2_3
REMARK    3  A    between atoms: N1_2  and  C3_4
REMARK    4  A    between atoms: C8_9  and  C9_10
REMARK    5  A    between atoms: C9_10  and  N2_11
REMARK    6  A    between atoms: N3_15  and  C19_23
REMARK    7  A    between atoms: C13_16  and  C14_17
REMARK    8  A    between atoms: C19_23  and  C20_24
REMARK    9  A    between atoms: C25_29  and  N5_30
REMARK   10  A    between atoms: N5_30  and  C26_31
REMARK   11  A    between atoms: N5_30  and  C27_32
REMARK                            x       y       z     vdW  Elec       q    Type
REMARK                         _______ _______ _______ _____ _____    ______ ____
ROOT
ATOM      1  N2  UNL     1     -29.643 -10.420  -0.978  0.00  0.00    +0.000 NA
ATOM      2  C10 UNL     1     -30.670 -11.369  -1.410  0.00  0.00    +0.000 C 
ATOM      3  C11 UNL     1     -30.102 -12.313  -2.461  0.00  0.00    +0.000 C 
ATOM      4  C12 UNL     1     -29.512 -11.539  -3.637  0.00  0.00    +0.000 C 
ATOM      5  N3  UNL     1     -29.550 -10.104  -3.402  0.00  0.00    +0.000 NA
ATOM      6  C13 UNL     1     -29.021  -9.677  -2.098  0.00  0.00    +0.000 C 
ENDROOT
BRANCH   6   7
ATOM      7  C14 UNL     1     -27.493  -9.711  -1.988  0.00  0.00    +0.000 A 
ATOM      8  C15 UNL     1     -26.685  -8.637  -2.380  0.00  0.00    +0.000 A 
ATOM      9  C16 UNL     1     -25.309  -8.744  -2.250  0.00  0.00    +0.000 A 
ATOM     10  N4  UNL     1     -24.679  -9.833  -1.764  0.00  0.00    +0.000 NA
ATOM     11  C17 UNL     1     -25.467 -10.868  -1.405  0.00  0.00    +0.000 A 
ATOM     12  C18 UNL     1     -26.851 -10.854  -1.494  0.00  0.00    +0.000 A 
ENDBRANCH   6   7
BRANCH   5  13
ATOM     13  C19 UNL     1     -29.035  -9.302  -4.520  0.00  0.00    +0.000 C 
BRANCH  13  14
ATOM     14  C20 UNL     1     -28.895 -10.081  -5.816  0.00  0.00    +0.000 A 
ATOM     15  C21 UNL     1     -30.062 -10.430  -6.527  0.00  0.00    +0.000 A 
ATOM     16  C22 UNL     1     -29.989 -11.150  -7.717  0.00  0.00    +0.000 A 
ATOM     17  C23 UNL     1     -28.750 -11.534  -8.216  0.00  0.00    +0.000 A 
ATOM     18  C24 UNL     1     -27.585 -11.204  -7.519  0.00  0.00    +0.000 A 
ATOM     19  C25 UNL     1     -27.632 -10.485  -6.311  0.00  0.00    +0.000 A 
BRANCH  19  20
ATOM     20  N5  UNL     1     -26.455 -10.150  -5.600  0.00  0.00    +0.000 N 
ATOM     21  C26 UNL     1     -25.683 -11.294  -5.118  0.00  0.00    +0.000 C 
ATOM     22  C27 UNL     1     -25.664  -9.163  -6.344  0.00  0.00    +0.000 C 
ENDBRANCH  19  20
ENDBRANCH  13  14
ENDBRANCH   5  13
BRANCH   1  23
ATOM     23  C9  UNL     1     -30.219  -9.497   0.028  0.00  0.00    +0.000 C 
BRANCH  23  29
ATOM     24  C3  UNL     1     -29.931  -8.723   2.455  0.00  0.00    +0.000 A 
ATOM     25  C4  UNL     1     -29.327  -8.903   3.712  0.00  0.00    +0.000 A 
ATOM     26  C5  UNL     1     -28.434  -9.950   3.944  0.00  0.00    +0.000 A 
ATOM     27  C6  UNL     1     -28.133 -10.843   2.923  0.00  0.00    +0.000 A 
ATOM     28  C7  UNL     1     -28.726 -10.688   1.672  0.00  0.00    +0.000 A 
ATOM     29  C8  UNL     1     -29.616  -9.626   1.417  0.00  0.00    +0.000 A 
BRANCH  24  31
ATOM     30  C1  UNL     1     -30.350  -6.364   2.641  0.00  0.00    +0.000 C 
ATOM     31  N1  UNL     1     -30.852  -7.673   2.218  0.00  0.00    +0.000 N 
ATOM     32  C2  UNL     1     -32.181  -8.004   2.739  0.00  0.00    +0.000 C 
ENDBRANCH  24  31
ENDBRANCH  23  29
ENDBRANCH   1  23
TORSDOF 7
ENDMDL
MODEL 4
REMARK VINA RESULT:    -5.718      5.531      9.704
REMARK INTER + INTRA:          -9.978
REMARK INTER:                  -7.990
REMARK INTRA:                  -1.988
REMARK UNBOUND:                -1.920
REMARK  Name = gant61.pdb
REMARK  11 active torsions:
REMARK  status: ('A' for Active; 'I' for Inactive)
REMARK    1  A    between atoms: C1_1  and  N1_2
REMARK    2  A    between atoms: N1_2  and  C2_3
REMARK    3  A    between atoms: N1_2  and  C3_4
REMARK    4  A    between atoms: C8_9  and  C9_10
REMARK    5  A    between atoms: C9_10  and  N2_11
REMARK    6  A    between atoms: N3_15  and  C19_23
REMARK    7  A    between atoms: C13_16  and  C14_17
REMARK    8  A    between atoms: C19_23  and  C20_24
REMARK    9  A    between atoms: C25_29  and  N5_30
REMARK   10  A    between atoms: N5_30  and  C26_31
REMARK   11  A    between atoms: N5_30  and  C27_32
REMARK                            x       y       z     vdW  Elec       q    Type
REMARK                         _______ _______ _______ _____ _____    ______ ____
ROOT
ATOM      1  N2  UNL     1     -31.738  -7.072   4.980  0.00  0.00    +0.000 NA
ATOM      2  C10 UNL     1     -31.082  -7.841   6.039  0.00  0.00    +0.000 C 
ATOM      3  C11 UNL     1     -32.055  -8.093   7.183  0.00  0.00    +0.000 C 
ATOM      4  C12 UNL     1     -32.640  -6.785   7.708  0.00  0.00    +0.000 C 
ATOM      5  N3  UNL     1     -32.201  -5.648   6.914  0.00  0.00    +0.000 NA
ATOM      6  C13 UNL     1     -32.352  -5.813   5.461  0.00  0.00    +0.000 C 
ENDROOT
BRANCH   6   7
ATOM      7  C14 UNL     1     -33.790  -5.682   4.951  0.00  0.00    +0.000 A 
ATOM      8  C15 UNL     1     -34.381  -4.444   4.670  0.00  0.00    +0.000 A 
ATOM      9  C16 UNL     1     -35.689  -4.408   4.212  0.00  0.00    +0.000 A 
ATOM     10  N4  UNL     1     -36.451  -5.504   4.015  0.00  0.00    +0.000 NA
ATOM     11  C17 UNL     1     -35.876  -6.690   4.305  0.00  0.00    +0.000 A 
ATOM     12  C18 UNL     1     -34.575  -6.828   4.764  0.00  0.00    +0.000 A 
ENDBRANCH   6   7
BRANCH   5  13
ATOM     13  C19 UNL     1     -32.696  -4.353   7.399  0.00  0.00    +0.000 C 
BRANCH  13  14
ATOM     14  C20 UNL     1     -31.592  -3.365   7.736  0.00  0.00    +0.000 A 
ATOM     15  C21 UNL     1     -30.981  -3.439   9.004  0.00  0.00    +0.000 A 
ATOM     16  C22 UNL     1     -29.968  -2.553   9.366  0.00  0.00    +0.000 A 
ATOM     17  C23 UNL     1     -29.552  -1.579   8.467  0.00  0.00    +0.000 A 
ATOM     18  C24 UNL     1     -30.154  -1.486   7.210  0.00  0.00    +0.000 A 
ATOM     19  C25 UNL     1     -31.183  -2.364   6.824  0.00  0.00    +0.000 A 
BRANCH  19  20
ATOM     20  N5  UNL     1     -31.798  -2.273   5.552  0.00  0.00    +0.000 N 
ATOM     21  C26 UNL     1     -32.372  -0.965   5.241  0.00  0.00    +0.000 C 
ATOM     22  C27 UNL     1     -30.912  -2.804   4.510  0.00  0.00    +0.000 C 
ENDBRANCH  19  20
ENDBRANCH  13  14
ENDBRANCH   5  13
BRANCH   1  23
ATOM     23  C9  UNL     1     -30.771  -6.818   3.887  0.00  0.00    +0.000 C 
BRANCH  23  29
ATOM     24  C3  UNL     1     -30.797  -8.581   2.025  0.00  0.00    +0.000 A 
ATOM     25  C4  UNL     1     -31.243  -8.981   0.753  0.00  0.00    +0.000 A 
ATOM     26  C5  UNL     1     -32.081  -8.167  -0.011  0.00  0.00    +0.000 A 
ATOM     27  C6  UNL     1     -32.497  -6.939   0.488  0.00  0.00    +0.000 A 
ATOM     28  C7  UNL     1     -32.074  -6.526   1.749  0.00  0.00    +0.000 A 
ATOM     29  C8  UNL     1     -31.213  -7.328   2.525  0.00  0.00    +0.000 A 
BRANCH  24  31
ATOM     30  C1  UNL     1     -28.755  -9.846   2.106  0.00  0.00    +0.000 C 
ATOM     31  N1  UNL     1     -29.961  -9.410   2.813  0.00  0.00    +0.000 N 
ATOM     32  C2  UNL     1     -30.723 -10.499   3.431  0.00  0.00    +0.000 C 
ENDBRANCH  24  31
ENDBRANCH  23  29
ENDBRANCH   1  23
TORSDOF 7
ENDMDL
MODEL 5
REMARK VINA RESULT:    -5.618      5.654      9.674
REMARK INTER + INTRA:          -9.836
REMARK INTER:                  -7.831
REMARK INTRA:                  -2.005
REMARK UNBOUND:                -1.920
REMARK  Name = gant61.pdb
REMARK  11 active torsions:
REMARK  status: ('A' for Active; 'I' for Inactive)
REMARK    1  A    between atoms: C1_1  and  N1_2
REMARK    2  A    between atoms: N1_2  and  C2_3
REMARK    3  A    between atoms: N1_2  and  C3_4
REMARK    4  A    between atoms: C8_9  and  C9_10
REMARK    5  A    between atoms: C9_10  and  N2_11
REMARK    6  A    between atoms: N3_15  and  C19_23
REMARK    7  A    between atoms: C13_16  and  C14_17
REMARK    8  A    between atoms: C19_23  and  C20_24
REMARK    9  A    between atoms: C25_29  and  N5_30
REMARK   10  A    between atoms: N5_30  and  C26_31
REMARK   11  A    between atoms: N5_30  and  C27_32
REMARK                            x       y       z     vdW  Elec       q    Type
REMARK                         _______ _______ _______ _____ _____    ______ ____
ROOT
ATOM      1  N2  UNL     1     -31.512  -6.674   4.945  0.00  0.00    +0.000 NA
ATOM      2  C10 UNL     1     -30.660  -6.966   6.099  0.00  0.00    +0.000 C 
ATOM      3  C11 UNL     1     -31.516  -7.205   7.335  0.00  0.00    +0.000 C 
ATOM      4  C12 UNL     1     -32.446  -6.024   7.600  0.00  0.00    +0.000 C 
ATOM      5  N3  UNL     1     -32.350  -5.026   6.547  0.00  0.00    +0.000 NA
ATOM      6  C13 UNL     1     -32.455  -5.556   5.180  0.00  0.00    +0.000 C 
ENDROOT
BRANCH   6   7
ATOM      7  C14 UNL     1     -33.874  -5.947   4.755  0.00  0.00    +0.000 A 
ATOM      8  C15 UNL     1     -34.338  -7.267   4.802  0.00  0.00    +0.000 A 
ATOM      9  C16 UNL     1     -35.636  -7.542   4.399  0.00  0.00    +0.000 A 
ATOM     10  N4  UNL     1     -36.502  -6.608   3.953  0.00  0.00    +0.000 NA
ATOM     11  C17 UNL     1     -36.037  -5.342   3.896  0.00  0.00    +0.000 A 
ATOM     12  C18 UNL     1     -34.759  -4.969   4.280  0.00  0.00    +0.000 A 
ENDBRANCH   6   7
BRANCH   5  13
ATOM     13  C19 UNL     1     -33.191  -3.841   6.768  0.00  0.00    +0.000 C 
BRANCH  13  14
ATOM     14  C20 UNL     1     -32.490  -2.530   6.457  0.00  0.00    +0.000 A 
ATOM     15  C21 UNL     1     -31.125  -2.396   6.783  0.00  0.00    +0.000 A 
ATOM     16  C22 UNL     1     -30.437  -1.213   6.525  0.00  0.00    +0.000 A 
ATOM     17  C23 UNL     1     -31.103  -0.143   5.938  0.00  0.00    +0.000 A 
ATOM     18  C24 UNL     1     -32.458  -0.256   5.616  0.00  0.00    +0.000 A 
ATOM     19  C25 UNL     1     -33.176  -1.437   5.874  0.00  0.00    +0.000 A 
BRANCH  19  20
ATOM     20  N5  UNL     1     -34.549  -1.557   5.553  0.00  0.00    +0.000 N 
ATOM     21  C26 UNL     1     -35.457  -0.888   6.485  0.00  0.00    +0.000 C 
ATOM     22  C27 UNL     1     -34.782  -1.221   4.143  0.00  0.00    +0.000 C 
ENDBRANCH  19  20
ENDBRANCH  13  14
ENDBRANCH   5  13
BRANCH   1  23
ATOM     23  C9  UNL     1     -30.661  -6.422   3.759  0.00  0.00    +0.000 C 
BRANCH  23  29
ATOM     24  C3  UNL     1     -30.762  -8.420   2.155  0.00  0.00    +0.000 A 
ATOM     25  C4  UNL     1     -31.242  -8.979   0.957  0.00  0.00    +0.000 A 
ATOM     26  C5  UNL     1     -32.077  -8.256   0.103  0.00  0.00    +0.000 A 
ATOM     27  C6  UNL     1     -32.456  -6.962   0.437  0.00  0.00    +0.000 A 
ATOM     28  C7  UNL     1     -31.999  -6.392   1.623  0.00  0.00    +0.000 A 
ATOM     29  C8  UNL     1     -31.141  -7.102   2.487  0.00  0.00    +0.000 A 
BRANCH  24  31
ATOM     30  C1  UNL     1     -28.776  -9.757   2.362  0.00  0.00    +0.000 C 
ATOM     31  N1  UNL     1     -29.929  -9.155   3.034  0.00  0.00    +0.000 N 
ATOM     32  C2  UNL     1     -30.709 -10.093   3.847  0.00  0.00    +0.000 C 
ENDBRANCH  24  31
ENDBRANCH  23  29
ENDBRANCH   1  23
TORSDOF 7
ENDMDL
MODEL 6
REMARK VINA RESULT:    -5.581      5.888      9.575
REMARK INTER + INTRA:          -9.784
REMARK INTER:                  -7.725
REMARK INTRA:                  -2.059
REMARK UNBOUND:                -1.920
REMARK  Name = gant61.pdb
REMARK  11 active torsions:
REMARK  status: ('A' for Active; 'I' for Inactive)
REMARK    1  A    between atoms: C1_1  and  N1_2
REMARK    2  A    between atoms: N1_2  and  C2_3
REMARK    3  A    between atoms: N1_2  and  C3_4
REMARK    4  A    between atoms: C8_9  and  C9_10
REMARK    5  A    between atoms: C9_10  and  N2_11
REMARK    6  A    between atoms: N3_15  and  C19_23
REMARK    7  A    between atoms: C13_16  and  C14_17
REMARK    8  A    between atoms: C19_23  and  C20_24
REMARK    9  A    between atoms: C25_29  and  N5_30
REMARK   10  A    between atoms: N5_30  and  C26_31
REMARK   11  A    between atoms: N5_30  and  C27_32
REMARK                            x       y       z     vdW  Elec       q    Type
REMARK                         _______ _______ _______ _____ _____    ______ ____
ROOT
ATOM      1  N2  UNL     1     -30.914  -5.115   4.393  0.00  0.00    +0.000 NA
ATOM      2  C10 UNL     1     -30.723  -3.664   4.378  0.00  0.00    +0.000 C 
ATOM      3  C11 UNL     1     -31.031  -3.081   5.751  0.00  0.00    +0.000 C 
ATOM      4  C12 UNL     1     -32.435  -3.466   6.211  0.00  0.00    +0.000 C 
ATOM      5  N3  UNL     1     -33.073  -4.373   5.271  0.00  0.00    +0.000 NA
ATOM      6  C13 UNL     1     -32.254  -5.527   4.871  0.00  0.00    +0.000 C 
ENDROOT
BRANCH   6   7
ATOM      7  C14 UNL     1     -32.137  -6.624   5.934  0.00  0.00    +0.000 A 
ATOM      8  C15 UNL     1     -31.335  -6.487   7.073  0.00  0.00    +0.000 A 
ATOM      9  C16 UNL     1     -31.279  -7.525   7.990  0.00  0.00    +0.000 A 
ATOM     10  N4  UNL     1     -31.957  -8.685   7.859  0.00  0.00    +0.000 NA
ATOM     11  C17 UNL     1     -32.714  -8.811   6.749  0.00  0.00    +0.000 A 
ATOM     12  C18 UNL     1     -32.836  -7.829   5.779  0.00  0.00    +0.000 A 
ENDBRANCH   6   7
BRANCH   5  13
ATOM     13  C19 UNL     1     -34.446  -4.744   5.637  0.00  0.00    +0.000 C 
BRANCH  13  14
ATOM     14  C20 UNL     1     -35.507  -4.093   4.766  0.00  0.00    +0.000 A 
ATOM     15  C21 UNL     1     -35.392  -2.720   4.469  0.00  0.00    +0.000 A 
ATOM     16  C22 UNL     1     -36.341  -2.074   3.680  0.00  0.00    +0.000 A 
ATOM     17  C23 UNL     1     -37.421  -2.789   3.177  0.00  0.00    +0.000 A 
ATOM     18  C24 UNL     1     -37.554  -4.148   3.469  0.00  0.00    +0.000 A 
ATOM     19  C25 UNL     1     -36.614  -4.822   4.269  0.00  0.00    +0.000 A 
BRANCH  19  20
ATOM     20  N5  UNL     1     -36.746  -6.198   4.570  0.00  0.00    +0.000 N 
ATOM     21  C26 UNL     1     -37.676  -6.502   5.657  0.00  0.00    +0.000 C 
ATOM     22  C27 UNL     1     -36.978  -6.976   3.347  0.00  0.00    +0.000 C 
ENDBRANCH  19  20
ENDBRANCH  13  14
ENDBRANCH   5  13
BRANCH   1  23
ATOM     23  C9  UNL     1     -30.631  -5.661   3.045  0.00  0.00    +0.000 C 
BRANCH  23  29
ATOM     24  C3  UNL     1     -31.208  -8.005   2.181  0.00  0.00    +0.000 A 
ATOM     25  C4  UNL     1     -30.967  -9.390   2.205  0.00  0.00    +0.000 A 
ATOM     26  C5  UNL     1     -29.981  -9.940   3.025  0.00  0.00    +0.000 A 
ATOM     27  C6  UNL     1     -29.208  -9.112   3.831  0.00  0.00    +0.000 A 
ATOM     28  C7  UNL     1     -29.425  -7.736   3.816  0.00  0.00    +0.000 A 
ATOM     29  C8  UNL     1     -30.429  -7.167   3.007  0.00  0.00    +0.000 A 
BRANCH  24  31
ATOM     30  C1  UNL     1     -33.534  -7.449   1.934  0.00  0.00    +0.000 C 
ATOM     31  N1  UNL     1     -32.197  -7.439   1.338  0.00  0.00    +0.000 N 
ATOM     32  C2  UNL     1     -32.135  -8.010  -0.010  0.00  0.00    +0.000 C 
ENDBRANCH  24  31
ENDBRANCH  23  29
ENDBRANCH   1  23
TORSDOF 7
ENDMDL
MODEL 7
REMARK VINA RESULT:    -5.506      6.458     10.162
REMARK INTER + INTRA:          -9.678
REMARK INTER:                  -7.336
REMARK INTRA:                  -2.342
REMARK UNBOUND:                -1.920
REMARK  Name = gant61.pdb
REMARK  11 active torsions:
REMARK  status: ('A' for Active; 'I' for Inactive)
REMARK    1  A    between atoms: C1_1  and  N1_2
REMARK    2  A    between atoms: N1_2  and  C2_3
REMARK    3  A    between atoms: N1_2  and  C3_4
REMARK    4  A    between atoms: C8_9  and  C9_10
REMARK    5  A    between atoms: C9_10  and  N2_11
REMARK    6  A    between atoms: N3_15  and  C19_23
REMARK    7  A    between atoms: C13_16  and  C14_17
REMARK    8  A    between atoms: C19_23  and  C20_24
REMARK    9  A    between atoms: C25_29  and  N5_30
REMARK   10  A    between atoms: N5_30  and  C26_31
REMARK   11  A    between atoms: N5_30  and  C27_32
REMARK                            x       y       z     vdW  Elec       q    Type
REMARK                         _______ _______ _______ _____ _____    ______ ____
ROOT
ATOM      1  N2  UNL     1     -30.827  -4.801   4.809  0.00  0.00    +0.000 NA
ATOM      2  C10 UNL     1     -30.526  -3.369   4.770  0.00  0.00    +0.000 C 
ATOM      3  C11 UNL     1     -30.639  -2.772   6.165  0.00  0.00    +0.000 C 
ATOM      4  C12 UNL     1     -32.012  -3.048   6.774  0.00  0.00    +0.000 C 
ATOM      5  N3  UNL     1     -32.815  -3.898   5.910  0.00  0.00    +0.000 NA
ATOM      6  C13 UNL     1     -32.136  -5.110   5.429  0.00  0.00    +0.000 C 
ENDROOT
BRANCH   6   7
ATOM      7  C14 UNL     1     -31.992  -6.218   6.476  0.00  0.00    +0.000 A 
ATOM      8  C15 UNL     1     -31.091  -6.134   7.543  0.00  0.00    +0.000 A 
ATOM      9  C16 UNL     1     -31.017  -7.180   8.450  0.00  0.00    +0.000 A 
ATOM     10  N4  UNL     1     -31.768  -8.299   8.375  0.00  0.00    +0.000 NA
ATOM     11  C17 UNL     1     -32.621  -8.375   7.332  0.00  0.00    +0.000 A 
ATOM     12  C18 UNL     1     -32.768  -7.382   6.378  0.00  0.00    +0.000 A 
ENDBRANCH   6   7
BRANCH   5  13
ATOM     13  C19 UNL     1     -34.166  -4.163   6.422  0.00  0.00    +0.000 C 
BRANCH  13  14
ATOM     14  C20 UNL     1     -35.252  -4.055   5.364  0.00  0.00    +0.000 A 
ATOM     15  C21 UNL     1     -35.857  -5.237   4.891  0.00  0.00    +0.000 A 
ATOM     16  C22 UNL     1     -36.852  -5.194   3.917  0.00  0.00    +0.000 A 
ATOM     17  C23 UNL     1     -37.257  -3.969   3.400  0.00  0.00    +0.000 A 
ATOM     18  C24 UNL     1     -36.661  -2.790   3.852  0.00  0.00    +0.000 A 
ATOM     19  C25 UNL     1     -35.649  -2.807   4.828  0.00  0.00    +0.000 A 
BRANCH  19  20
ATOM     20  N5  UNL     1     -35.040  -1.615   5.288  0.00  0.00    +0.000 N 
ATOM     21  C26 UNL     1     -34.219  -0.923   4.295  0.00  0.00    +0.000 C 
ATOM     22  C27 UNL     1     -36.024  -0.756   5.957  0.00  0.00    +0.000 C 
ENDBRANCH  19  20
ENDBRANCH  13  14
ENDBRANCH   5  13
BRANCH   1  23
ATOM     23  C9  UNL     1     -30.733  -5.360   3.440  0.00  0.00    +0.000 C 
BRANCH  23  29
ATOM     24  C3  UNL     1     -31.488  -7.675   2.639  0.00  0.00    +0.000 A 
ATOM     25  C4  UNL     1     -31.305  -9.070   2.644  0.00  0.00    +0.000 A 
ATOM     26  C5  UNL     1     -30.271  -9.663   3.370  0.00  0.00    +0.000 A 
ATOM     27  C6  UNL     1     -29.392  -8.869   4.098  0.00  0.00    +0.000 A 
ATOM     28  C7  UNL     1     -29.550  -7.485   4.100  0.00  0.00    +0.000 A 
ATOM     29  C8  UNL     1     -30.600  -6.873   3.387  0.00  0.00    +0.000 A 
BRANCH  24  31
ATOM     30  C1  UNL     1     -33.845  -7.228   2.504  0.00  0.00    +0.000 C 
ATOM     31  N1  UNL     1     -32.525  -7.067   1.890  0.00  0.00    +0.000 N 
ATOM     32  C2  UNL     1     -32.465  -7.461   0.480  0.00  0.00    +0.000 C 
ENDBRANCH  24  31
ENDBRANCH  23  29
ENDBRANCH   1  23
TORSDOF 7
ENDMDL
MODEL 8
REMARK VINA RESULT:    -5.379      1.451      6.365
REMARK INTER + INTRA:          -9.501
REMARK INTER:                  -6.927
REMARK INTRA:                  -2.573
REMARK UNBOUND:                -1.920
REMARK  Name = gant61.pdb
REMARK  11 active torsions:
REMARK  status: ('A' for Active; 'I' for Inactive)
REMARK    1  A    between atoms: C1_1  and  N1_2
REMARK    2  A    between atoms: N1_2  and  C2_3
REMARK    3  A    between atoms: N1_2  and  C3_4
REMARK    4  A    between atoms: C8_9  and  C9_10
REMARK    5  A    between atoms: C9_10  and  N2_11
REMARK    6  A    between atoms: N3_15  and  C19_23
REMARK    7  A    between atoms: C13_16  and  C14_17
REMARK    8  A    between atoms: C19_23  and  C20_24
REMARK    9  A    between atoms: C25_29  and  N5_30
REMARK   10  A    between atoms: N5_30  and  C26_31
REMARK   11  A    between atoms: N5_30  and  C27_32
REMARK                            x       y       z     vdW  Elec       q    Type
REMARK                         _______ _______ _______ _____ _____    ______ ____
ROOT
ATOM      1  N2  UNL     1     -28.998 -12.278  -0.600  0.00  0.00    +0.000 NA
ATOM      2  C10 UNL     1     -27.569 -12.597  -0.578  0.00  0.00    +0.000 C 
ATOM      3  C11 UNL     1     -26.765 -11.368  -0.174  0.00  0.00    +0.000 C 
ATOM      4  C12 UNL     1     -27.070 -10.184  -1.088  0.00  0.00    +0.000 C 
ATOM      5  N3  UNL     1     -28.123 -10.503  -2.038  0.00  0.00    +0.000 NA
ATOM      6  C13 UNL     1     -29.326 -11.109  -1.449  0.00  0.00    +0.000 C 
ENDROOT
BRANCH   6   7
ATOM      7  C14 UNL     1     -30.229 -10.128  -0.694  0.00  0.00    +0.000 A 
ATOM      8  C15 UNL     1     -31.202  -9.353  -1.335  0.00  0.00    +0.000 A 
ATOM      9  C16 UNL     1     -31.980  -8.487  -0.583  0.00  0.00    +0.000 A 
ATOM     10  N4  UNL     1     -31.863  -8.334   0.753  0.00  0.00    +0.000 NA
ATOM     11  C17 UNL     1     -30.911  -9.074   1.357  0.00  0.00    +0.000 A 
ATOM     12  C18 UNL     1     -30.087  -9.969   0.692  0.00  0.00    +0.000 A 
ENDBRANCH   6   7
BRANCH   5  13
ATOM     13  C19 UNL     1     -28.430  -9.415  -2.977  0.00  0.00    +0.000 C 
BRANCH  13  14
ATOM     14  C20 UNL     1     -28.651  -9.886  -4.404  0.00  0.00    +0.000 A 
ATOM     15  C21 UNL     1     -29.965 -10.168  -4.830  0.00  0.00    +0.000 A 
ATOM     16  C22 UNL     1     -30.222 -10.608  -6.126  0.00  0.00    +0.000 A 
ATOM     17  C23 UNL     1     -29.169 -10.776  -7.018  0.00  0.00    +0.000 A 
ATOM     18  C24 UNL     1     -27.860 -10.509  -6.610  0.00  0.00    +0.000 A 
ATOM     19  C25 UNL     1     -27.574 -10.071  -5.304  0.00  0.00    +0.000 A 
BRANCH  19  20
ATOM     20  N5  UNL     1     -26.249  -9.802  -4.884  0.00  0.00    +0.000 N 
ATOM     21  C26 UNL     1     -25.424 -10.988  -4.662  0.00  0.00    +0.000 C 
ATOM     22  C27 UNL     1     -25.628  -8.791  -5.748  0.00  0.00    +0.000 C 
ENDBRANCH  19  20
ENDBRANCH  13  14
ENDBRANCH   5  13
BRANCH   1  23
ATOM     23  C9  UNL     1     -29.761 -13.477  -1.016  0.00  0.00    +0.000 C 
BRANCH  23  29
ATOM     24  C3  UNL     1     -31.002 -13.551  -3.259  0.00  0.00    +0.000 A 
ATOM     25  C4  UNL     1     -30.969 -13.782  -4.646  0.00  0.00    +0.000 A 
ATOM     26  C5  UNL     1     -29.789 -14.153  -5.291  0.00  0.00    +0.000 A 
ATOM     27  C6  UNL     1     -28.614 -14.291  -4.561  0.00  0.00    +0.000 A 
ATOM     28  C7  UNL     1     -28.623 -14.059  -3.188  0.00  0.00    +0.000 A 
ATOM     29  C8  UNL     1     -29.810 -13.701  -2.519  0.00  0.00    +0.000 A 
BRANCH  24  31
ATOM     30  C1  UNL     1     -33.077 -14.283  -2.291  0.00  0.00    +0.000 C 
ATOM     31  N1  UNL     1     -32.193 -13.157  -2.601  0.00  0.00    +0.000 N 
ATOM     32  C2  UNL     1     -32.850 -12.053  -3.307  0.00  0.00    +0.000 C 
ENDBRANCH  24  31
ENDBRANCH  23  29
ENDBRANCH   1  23
TORSDOF 7
ENDMDL
MODEL 9
REMARK VINA RESULT:    -5.220      2.442      8.602
REMARK INTER + INTRA:          -9.277
REMARK INTER:                  -7.912
REMARK INTRA:                  -1.365
REMARK UNBOUND:                -1.920
REMARK  Name = gant61.pdb
REMARK  11 active torsions:
REMARK  status: ('A' for Active; 'I' for Inactive)
REMARK    1  A    between atoms: C1_1  and  N1_2
REMARK    2  A    between atoms: N1_2  and  C2_3
REMARK    3  A    between atoms: N1_2  and  C3_4
REMARK    4  A    between atoms: C8_9  and  C9_10
REMARK    5  A    between atoms: C9_10  and  N2_11
REMARK    6  A    between atoms: N3_15  and  C19_23
REMARK    7  A    between atoms: C13_16  and  C14_17
REMARK    8  A    between atoms: C19_23  and  C20_24
REMARK    9  A    between atoms: C25_29  and  N5_30
REMARK   10  A    between atoms: N5_30  and  C26_31
REMARK   11  A    between atoms: N5_30  and  C27_32
REMARK                            x       y       z     vdW  Elec       q    Type
REMARK                         _______ _______ _______ _____ _____    ______ ____
ROOT
ATOM      1  N2  UNL     1     -27.208 -10.173  -4.236  0.00  0.00    +0.000 NA
ATOM      2  C10 UNL     1     -26.641  -8.853  -3.955  0.00  0.00    +0.000 C 
ATOM      3  C11 UNL     1     -26.502  -8.058  -5.246  0.00  0.00    +0.000 C 
ATOM      4  C12 UNL     1     -25.680  -8.822  -6.280  0.00  0.00    +0.000 C 
ATOM      5  N3  UNL     1     -25.332 -10.152  -5.806  0.00  0.00    +0.000 NA
ATOM      6  C13 UNL     1     -26.456 -10.929  -5.264  0.00  0.00    +0.000 C 
ENDROOT
BRANCH   6   7
ATOM      7  C14 UNL     1     -27.408 -11.497  -6.322  0.00  0.00    +0.000 A 
ATOM      8  C15 UNL     1     -28.384 -10.717  -6.953  0.00  0.00    +0.000 A 
ATOM      9  C16 UNL     1     -29.209 -11.303  -7.901  0.00  0.00    +0.000 A 
ATOM     10  N4  UNL     1     -29.137 -12.601  -8.265  0.00  0.00    +0.000 NA
ATOM     11  C17 UNL     1     -28.203 -13.346  -7.638  0.00  0.00    +0.000 A 
ATOM     12  C18 UNL     1     -27.331 -12.850  -6.681  0.00  0.00    +0.000 A 
ENDBRANCH   6   7
BRANCH   5  13
ATOM     13  C19 UNL     1     -24.501 -10.922  -6.741  0.00  0.00    +0.000 C 
BRANCH  13  14
ATOM     14  C20 UNL     1     -24.001 -10.109  -7.923  0.00  0.00    +0.000 A 
ATOM     15  C21 UNL     1     -22.999  -9.141  -7.705  0.00  0.00    +0.000 A 
ATOM     16  C22 UNL     1     -22.510  -8.365  -8.753  0.00  0.00    +0.000 A 
ATOM     17  C23 UNL     1     -23.015  -8.542 -10.036  0.00  0.00    +0.000 A 
ATOM     18  C24 UNL     1     -24.014  -9.491 -10.267  0.00  0.00    +0.000 A 
ATOM     19  C25 UNL     1     -24.530 -10.281  -9.225  0.00  0.00    +0.000 A 
BRANCH  19  20
ATOM     20  N5  UNL     1     -25.543 -11.242  -9.453  0.00  0.00    +0.000 N 
ATOM     21  C26 UNL     1     -26.586 -10.823 -10.388  0.00  0.00    +0.000 C 
ATOM     22  C27 UNL     1     -24.956 -12.552  -9.757  0.00  0.00    +0.000 C 
ENDBRANCH  19  20
ENDBRANCH  13  14
ENDBRANCH   5  13
BRANCH   1  23
ATOM     23  C9  UNL     1     -27.314 -10.940  -2.973  0.00  0.00    +0.000 C 
BRANCH  23  29
ATOM     24  C3  UNL     1     -29.841 -10.812  -2.556  0.00  0.00    +0.000 A 
ATOM     25  C4  UNL     1     -30.905 -10.445  -1.712  0.00  0.00    +0.000 A 
ATOM     26  C5  UNL     1     -30.673  -9.863  -0.465  0.00  0.00    +0.000 A 
ATOM     27  C6  UNL     1     -29.370  -9.646  -0.033  0.00  0.00    +0.000 A 
ATOM     28  C7  UNL     1     -28.302 -10.009  -0.849  0.00  0.00    +0.000 A 
ATOM     29  C8  UNL     1     -28.519 -10.580  -2.119  0.00  0.00    +0.000 A 
BRANCH  24  31
ATOM     30  C1  UNL     1     -31.109 -10.745  -4.597  0.00  0.00    +0.000 C 
ATOM     31  N1  UNL     1     -30.069 -11.418  -3.816  0.00  0.00    +0.000 N 
ATOM     32  C2  UNL     1     -30.259 -12.865  -3.683  0.00  0.00    +0.000 C 
ENDBRANCH  24  31
ENDBRANCH  23  29
ENDBRANCH   1  23
TORSDOF 7
ENDMDL
MODEL 10
REMARK VINA RESULT:    -5.168      2.763      7.880
REMARK INTER + INTRA:          -9.203
REMARK INTER:                  -7.111
REMARK INTRA:                  -2.093
REMARK UNBOUND:                -1.920
REMARK  Name = gant61.pdb
REMARK  11 active torsions:
REMARK  status: ('A' for Active; 'I' for Inactive)
REMARK    1  A    between atoms: C1_1  and  N1_2
REMARK    2  A    between atoms: N1_2  and  C2_3
REMARK    3  A    between atoms: N1_2  and  C3_4
REMARK    4  A    between atoms: C8_9  and  C9_10
REMARK    5  A    between atoms: C9_10  and  N2_11
REMARK    6  A    between atoms: N3_15  and  C19_23
REMARK    7  A    between atoms: C13_16  and  C14_17
REMARK    8  A    between atoms: C19_23  and  C20_24
REMARK    9  A    between atoms: C25_29  and  N5_30
REMARK   10  A    between atoms: N5_30  and  C26_31
REMARK   11  A    between atoms: N5_30  and  C27_32
REMARK                            x       y       z     vdW  Elec       q    Type
REMARK                         _______ _______ _______ _____ _____    ______ ____
ROOT
ATOM      1  N2  UNL     1     -28.637 -10.341  -4.974  0.00  0.00    +0.000 NA
ATOM      2  C10 UNL     1     -29.567  -9.785  -5.958  0.00  0.00    +0.000 C 
ATOM      3  C11 UNL     1     -30.037 -10.876  -6.910  0.00  0.00    +0.000 C 
ATOM      4  C12 UNL     1     -28.855 -11.574  -7.576  0.00  0.00    +0.000 C 
ATOM      5  N3  UNL     1     -27.587 -11.090  -7.053  0.00  0.00    +0.000 NA
ATOM      6  C13 UNL     1     -27.495 -11.059  -5.585  0.00  0.00    +0.000 C 
ENDROOT
BRANCH   6   7
ATOM      7  C14 UNL     1     -27.305 -12.431  -4.930  0.00  0.00    +0.000 A 
ATOM      8  C15 UNL     1     -26.084 -13.116  -4.956  0.00  0.00    +0.000 A 
ATOM      9  C16 UNL     1     -25.991 -14.355  -4.340  0.00  0.00    +0.000 A 
ATOM     10  N4  UNL     1     -27.016 -14.961  -3.704  0.00  0.00    +0.000 NA
ATOM     11  C17 UNL     1     -28.191 -14.298  -3.700  0.00  0.00    +0.000 A 
ATOM     12  C18 UNL     1     -28.381 -13.055  -4.285  0.00  0.00    +0.000 A 
ENDBRANCH   6   7
BRANCH   5  13
ATOM     13  C19 UNL     1     -26.409 -11.694  -7.688  0.00  0.00    +0.000 C 
BRANCH  13  14
ATOM     14  C20 UNL     1     -25.607 -10.721  -8.536  0.00  0.00    +0.000 A 
ATOM     15  C21 UNL     1     -25.994 -10.511  -9.875  0.00  0.00    +0.000 A 
ATOM     16  C22 UNL     1     -25.290  -9.634 -10.697  0.00  0.00    +0.000 A 
ATOM     17  C23 UNL     1     -24.187  -8.954 -10.194  0.00  0.00    +0.000 A 
ATOM     18  C24 UNL     1     -23.785  -9.157  -8.872  0.00  0.00    +0.000 A 
ATOM     19  C25 UNL     1     -24.475 -10.043  -8.024  0.00  0.00    +0.000 A 
BRANCH  19  20
ATOM     20  N5  UNL     1     -24.071 -10.255  -6.685  0.00  0.00    +0.000 N 
ATOM     21  C26 UNL     1     -22.746 -10.854  -6.531  0.00  0.00    +0.000 C 
ATOM     22  C27 UNL     1     -24.277  -9.042  -5.884  0.00  0.00    +0.000 C 
ENDBRANCH  19  20
ENDBRANCH  13  14
ENDBRANCH   5  13
BRANCH   1  23
ATOM     23  C9  UNL     1     -28.174  -9.261  -4.071  0.00  0.00    +0.000 C 
BRANCH  23  29
ATOM     24  C3  UNL     1     -27.134  -9.892  -1.814  0.00  0.00    +0.000 A 
ATOM     25  C4  UNL     1     -27.307 -10.197  -0.452  0.00  0.00    +0.000 A 
ATOM     26  C5  UNL     1     -28.574 -10.207   0.133  0.00  0.00    +0.000 A 
ATOM     27  C6  UNL     1     -29.694  -9.903  -0.633  0.00  0.00    +0.000 A 
ATOM     28  C7  UNL     1     -29.544  -9.591  -1.982  0.00  0.00    +0.000 A 
ATOM     29  C8  UNL     1     -28.273  -9.594  -2.591  0.00  0.00    +0.000 A 
BRANCH  24  31
ATOM     30  C1  UNL     1     -25.060 -11.065  -2.132  0.00  0.00    +0.000 C 
ATOM     31  N1  UNL     1     -25.849  -9.863  -2.410  0.00  0.00    +0.000 N 
ATOM     32  C2  UNL     1     -25.154  -8.607  -2.114  0.00  0.00    +0.000 C 
ENDBRANCH  24  31
ENDBRANCH  23  29
ENDBRANCH   1  23
TORSDOF 7
ENDMDL
MODEL 11
REMARK VINA RESULT:    -5.166      2.978      8.179
REMARK INTER + INTRA:          -9.200
REMARK INTER:                  -6.545
REMARK INTRA:                  -2.655
REMARK UNBOUND:                -1.920
REMARK  Name = gant61.pdb
REMARK  11 active torsions:
REMARK  status: ('A' for Active; 'I' for Inactive)
REMARK    1  A    between atoms: C1_1  and  N1_2
REMARK    2  A    between atoms: N1_2  and  C2_3
REMARK    3  A    between atoms: N1_2  and  C3_4
REMARK    4  A    between atoms: C8_9  and  C9_10
REMARK    5  A    between atoms: C9_10  and  N2_11
REMARK    6  A    between atoms: N3_15  and  C19_23
REMARK    7  A    between atoms: C13_16  and  C14_17
REMARK    8  A    between atoms: C19_23  and  C20_24
REMARK    9  A    between atoms: C25_29  and  N5_30
REMARK   10  A    between atoms: N5_30  and  C26_31
REMARK   11  A    between atoms: N5_30  and  C27_32
REMARK                            x       y       z     vdW  Elec       q    Type
REMARK                         _______ _______ _______ _____ _____    ______ ____
ROOT
ATOM      1  N2  UNL     1     -25.733  -9.810  -4.931  0.00  0.00    +0.000 NA
ATOM      2  C10 UNL     1     -25.325 -10.593  -3.763  0.00  0.00    +0.000 C 
ATOM      3  C11 UNL     1     -24.086 -11.415  -4.091  0.00  0.00    +0.000 C 
ATOM      4  C12 UNL     1     -24.316 -12.296  -5.316  0.00  0.00    +0.000 C 
ATOM      5  N3  UNL     1     -25.617 -12.046  -5.914  0.00  0.00    +0.000 NA
ATOM      6  C13 UNL     1     -25.929 -10.629  -6.149  0.00  0.00    +0.000 C 
ENDROOT
BRANCH   6   7
ATOM      7  C14 UNL     1     -25.200 -10.005  -7.343  0.00  0.00    +0.000 A 
ATOM      8  C15 UNL     1     -23.852  -9.631  -7.292  0.00  0.00    +0.000 A 
ATOM      9  C16 UNL     1     -23.262  -9.071  -8.415  0.00  0.00    +0.000 A 
ATOM     10  N4  UNL     1     -23.910  -8.855  -9.579  0.00  0.00    +0.000 NA
ATOM     11  C17 UNL     1     -25.212  -9.205  -9.611  0.00  0.00    +0.000 A 
ATOM     12  C18 UNL     1     -25.888  -9.774  -8.542  0.00  0.00    +0.000 A 
ENDBRANCH   6   7
BRANCH   5  13
ATOM     13  C19 UNL     1     -25.916 -12.898  -7.073  0.00  0.00    +0.000 C 
BRANCH  13  14
ATOM     14  C20 UNL     1     -27.347 -13.408  -7.103  0.00  0.00    +0.000 A 
ATOM     15  C21 UNL     1     -27.914 -13.905  -5.912  0.00  0.00    +0.000 A 
ATOM     16  C22 UNL     1     -29.220 -14.390  -5.887  0.00  0.00    +0.000 A 
ATOM     17  C23 UNL     1     -29.979 -14.387  -7.051  0.00  0.00    +0.000 A 
ATOM     18  C24 UNL     1     -29.428 -13.905  -8.241  0.00  0.00    +0.000 A 
ATOM     19  C25 UNL     1     -28.110 -13.418  -8.295  0.00  0.00    +0.000 A 
BRANCH  19  20
ATOM     20  N5  UNL     1     -27.546 -12.932  -9.498  0.00  0.00    +0.000 N 
ATOM     21  C26 UNL     1     -27.062 -13.967 -10.411  0.00  0.00    +0.000 C 
ATOM     22  C27 UNL     1     -28.436 -11.948 -10.126  0.00  0.00    +0.000 C 
ENDBRANCH  19  20
ENDBRANCH  13  14
ENDBRANCH   5  13
BRANCH   1  23
ATOM     23  C9  UNL     1     -26.952  -9.035  -4.600  0.00  0.00    +0.000 C 
BRANCH  23  29
ATOM     24  C3  UNL     1     -29.008 -10.366  -3.842  0.00  0.00    +0.000 A 
ATOM     25  C4  UNL     1     -30.201 -11.031  -4.176  0.00  0.00    +0.000 A 
ATOM     26  C5  UNL     1     -30.644 -11.106  -5.497  0.00  0.00    +0.000 A 
ATOM     27  C6  UNL     1     -29.906 -10.506  -6.510  0.00  0.00    +0.000 A 
ATOM     28  C7  UNL     1     -28.726  -9.835  -6.201  0.00  0.00    +0.000 A 
ATOM     29  C8  UNL     1     -28.255  -9.767  -4.875  0.00  0.00    +0.000 A 
BRANCH  24  31
ATOM     30  C1  UNL     1     -28.247 -11.573  -1.908  0.00  0.00    +0.000 C 
ATOM     31  N1  UNL     1     -28.561 -10.272  -2.501  0.00  0.00    +0.000 N 
ATOM     32  C2  UNL     1     -29.467  -9.447  -1.696  0.00  0.00    +0.000 C 
ENDBRANCH  24  31
ENDBRANCH  23  29
ENDBRANCH   1  23
TORSDOF 7
ENDMDL
MODEL 12
REMARK VINA RESULT:    -5.165      1.307      2.271
REMARK INTER + INTRA:          -9.199
REMARK INTER:                  -8.210
REMARK INTRA:                  -0.989
REMARK UNBOUND:                -1.920
REMARK  Name = gant61.pdb
REMARK  11 active torsions:
REMARK  status: ('A' for Active; 'I' for Inactive)
REMARK    1  A    between atoms: C1_1  and  N1_2
REMARK    2  A    between atoms: N1_2  and  C2_3
REMARK    3  A    between atoms: N1_2  and  C3_4
REMARK    4  A    between atoms: C8_9  and  C9_10
REMARK    5  A    between atoms: C9_10  and  N2_11
REMARK    6  A    between atoms: N3_15  and  C19_23
REMARK    7  A    between atoms: C13_16  and  C14_17
REMARK    8  A    between atoms: C19_23  and  C20_24
REMARK    9  A    between atoms: C25_29  and  N5_30
REMARK   10  A    between atoms: N5_30  and  C26_31
REMARK   11  A    between atoms: N5_30  and  C27_32
REMARK                            x       y       z     vdW  Elec       q    Type
REMARK                         _______ _______ _______ _____ _____    ______ ____
ROOT
ATOM      1  N2  UNL     1     -28.343 -10.204  -2.264  0.00  0.00    +0.000 NA
ATOM      2  C10 UNL     1     -27.201 -10.222  -1.349  0.00  0.00    +0.000 C 
ATOM      3  C11 UNL     1     -27.422 -11.260  -0.257  0.00  0.00    +0.000 C 
ATOM      4  C12 UNL     1     -28.736 -11.016   0.479  0.00  0.00    +0.000 C 
ATOM      5  N3  UNL     1     -29.486  -9.924  -0.120  0.00  0.00    +0.000 NA
ATOM      6  C13 UNL     1     -29.642 -10.007  -1.580  0.00  0.00    +0.000 C 
ENDROOT
BRANCH   6   7
ATOM      7  C14 UNL     1     -30.667 -11.042  -2.054  0.00  0.00    +0.000 A 
ATOM      8  C15 UNL     1     -30.551 -12.406  -1.760  0.00  0.00    +0.000 A 
ATOM      9  C16 UNL     1     -31.520 -13.282  -2.226  0.00  0.00    +0.000 A 
ATOM     10  N4  UNL     1     -32.588 -12.906  -2.960  0.00  0.00    +0.000 NA
ATOM     11  C17 UNL     1     -32.679 -11.591  -3.251  0.00  0.00    +0.000 A 
ATOM     12  C18 UNL     1     -31.764 -10.639  -2.828  0.00  0.00    +0.000 A 
ENDBRANCH   6   7
BRANCH   5  13
ATOM     13  C19 UNL     1     -30.743  -9.611   0.573  0.00  0.00    +0.000 C 
BRANCH  13  14
ATOM     14  C20 UNL     1     -30.549  -8.852   1.875  0.00  0.00    +0.000 A 
ATOM     15  C21 UNL     1     -29.418  -9.140   2.665  0.00  0.00    +0.000 A 
ATOM     16  C22 UNL     1     -29.196  -8.478   3.871  0.00  0.00    +0.000 A 
ATOM     17  C23 UNL     1     -30.103  -7.518   4.306  0.00  0.00    +0.000 A 
ATOM     18  C24 UNL     1     -31.233  -7.228   3.539  0.00  0.00    +0.000 A 
ATOM     19  C25 UNL     1     -31.484  -7.888   2.323  0.00  0.00    +0.000 A 
BRANCH  19  20
ATOM     20  N5  UNL     1     -32.629  -7.599   1.543  0.00  0.00    +0.000 N 
ATOM     21  C26 UNL     1     -33.854  -7.382   2.310  0.00  0.00    +0.000 C 
ATOM     22  C27 UNL     1     -32.337  -6.543   0.566  0.00  0.00    +0.000 C 
ENDBRANCH  19  20
ENDBRANCH  13  14
ENDBRANCH   5  13
BRANCH   1  23
ATOM     23  C9  UNL     1     -28.121  -9.174  -3.306  0.00  0.00    +0.000 C 
BRANCH  23  29
ATOM     24  C3  UNL     1     -26.869  -9.920  -5.415  0.00  0.00    +0.000 A 
ATOM     25  C4  UNL     1     -26.916 -10.417  -6.731  0.00  0.00    +0.000 A 
ATOM     26  C5  UNL     1     -28.131 -10.706  -7.354  0.00  0.00    +0.000 A 
ATOM     27  C6  UNL     1     -29.325 -10.512  -6.668  0.00  0.00    +0.000 A 
ATOM     28  C7  UNL     1     -29.301 -10.028  -5.363  0.00  0.00    +0.000 A 
ATOM     29  C8  UNL     1     -28.084  -9.714  -4.726  0.00  0.00    +0.000 A 
BRANCH  24  31
ATOM     30  C1  UNL     1     -24.819  -8.668  -5.497  0.00  0.00    +0.000 C 
ATOM     31  N1  UNL     1     -25.639  -9.642  -4.772  0.00  0.00    +0.000 N 
ATOM     32  C2  UNL     1     -24.933 -10.876  -4.416  0.00  0.00    +0.000 C 
ENDBRANCH  24  31
ENDBRANCH  23  29
ENDBRANCH   1  23
TORSDOF 7
ENDMDL
MODEL 13
REMARK VINA RESULT:    -5.154      2.061      3.142
REMARK INTER + INTRA:          -9.183
REMARK INTER:                  -7.491
REMARK INTRA:                  -1.691
REMARK UNBOUND:                -1.920
REMARK  Name = gant61.pdb
REMARK  11 active torsions:
REMARK  status: ('A' for Active; 'I' for Inactive)
REMARK    1  A    between atoms: C1_1  and  N1_2
REMARK    2  A    between atoms: N1_2  and  C2_3
REMARK    3  A    between atoms: N1_2  and  C3_4
REMARK    4  A    between atoms: C8_9  and  C9_10
REMARK    5  A    between atoms: C9_10  and  N2_11
REMARK    6  A    between atoms: N3_15  and  C19_23
REMARK    7  A    between atoms: C13_16  and  C14_17
REMARK    8  A    between atoms: C19_23  and  C20_24
REMARK    9  A    between atoms: C25_29  and  N5_30
REMARK   10  A    between atoms: N5_30  and  C26_31
REMARK   11  A    between atoms: N5_30  and  C27_32
REMARK                            x       y       z     vdW  Elec       q    Type
REMARK                         _______ _______ _______ _____ _____    ______ ____
ROOT
ATOM      1  N2  UNL     1     -29.522 -10.781  -2.913  0.00  0.00    +0.000 NA
ATOM      2  C10 UNL     1     -28.744  -9.544  -2.998  0.00  0.00    +0.000 C 
ATOM      3  C11 UNL     1     -27.627  -9.555  -1.963  0.00  0.00    +0.000 C 
ATOM      4  C12 UNL     1     -28.179  -9.786  -0.558  0.00  0.00    +0.000 C 
ATOM      5  N3  UNL     1     -29.611 -10.040  -0.584  0.00  0.00    +0.000 NA
ATOM      6  C13 UNL     1     -30.042 -11.057  -1.554  0.00  0.00    +0.000 C 
ENDROOT
BRANCH   6   7
ATOM      7  C14 UNL     1     -29.738 -12.501  -1.141  0.00  0.00    +0.000 A 
ATOM      8  C15 UNL     1     -28.446 -13.037  -1.171  0.00  0.00    +0.000 A 
ATOM      9  C16 UNL     1     -28.251 -14.354  -0.783  0.00  0.00    +0.000 A 
ATOM     10  N4  UNL     1     -29.241 -15.174  -0.371  0.00  0.00    +0.000 NA
ATOM     11  C17 UNL     1     -30.485 -14.650  -0.363  0.00  0.00    +0.000 A 
ATOM     12  C18 UNL     1     -30.778 -13.346  -0.729  0.00  0.00    +0.000 A 
ENDBRANCH   6   7
BRANCH   5  13
ATOM     13  C19 UNL     1     -30.209 -10.226   0.745  0.00  0.00    +0.000 C 
BRANCH  13  14
ATOM     14  C20 UNL     1     -31.085  -9.066   1.187  0.00  0.00    +0.000 A 
ATOM     15  C21 UNL     1     -31.775  -8.325   0.206  0.00  0.00    +0.000 A 
ATOM     16  C22 UNL     1     -32.587  -7.249   0.557  0.00  0.00    +0.000 A 
ATOM     17  C23 UNL     1     -32.720  -6.894   1.894  0.00  0.00    +0.000 A 
ATOM     18  C24 UNL     1     -32.036  -7.612   2.878  0.00  0.00    +0.000 A 
ATOM     19  C25 UNL     1     -31.204  -8.698   2.548  0.00  0.00    +0.000 A 
BRANCH  19  20
ATOM     20  N5  UNL     1     -30.507  -9.427   3.540  0.00  0.00    +0.000 N 
ATOM     21  C26 UNL     1     -29.151  -8.951   3.812  0.00  0.00    +0.000 C 
ATOM     22  C27 UNL     1     -31.336  -9.593   4.740  0.00  0.00    +0.000 C 
ENDBRANCH  19  20
ENDBRANCH  13  14
ENDBRANCH   5  13
BRANCH   1  23
ATOM     23  C9  UNL     1     -30.616 -10.742  -3.912  0.00  0.00    +0.000 C 
BRANCH  23  29
ATOM     24  C3  UNL     1     -31.054 -13.222  -4.392  0.00  0.00    +0.000 A 
ATOM     25  C4  UNL     1     -31.940 -14.314  -4.370  0.00  0.00    +0.000 A 
ATOM     26  C5  UNL     1     -33.243 -14.181  -3.888  0.00  0.00    +0.000 A 
ATOM     27  C6  UNL     1     -33.683 -12.952  -3.410  0.00  0.00    +0.000 A 
ATOM     28  C7  UNL     1     -32.819 -11.859  -3.416  0.00  0.00    +0.000 A 
ATOM     29  C8  UNL     1     -31.507 -11.973  -3.915  0.00  0.00    +0.000 A 
BRANCH  24  31
ATOM     30  C1  UNL     1     -29.603 -13.133  -6.307  0.00  0.00    +0.000 C 
ATOM     31  N1  UNL     1     -29.725 -13.355  -4.864  0.00  0.00    +0.000 N 
ATOM     32  C2  UNL     1     -29.117 -14.602  -4.394  0.00  0.00    +0.000 C 
ENDBRANCH  24  31
ENDBRANCH  23  29
ENDBRANCH   1  23
TORSDOF 7
ENDMDL
MODEL 14
REMARK VINA RESULT:    -5.090      7.213     11.692
REMARK INTER + INTRA:          -9.093
REMARK INTER:                  -6.452
REMARK INTRA:                  -2.641
REMARK UNBOUND:                -1.920
REMARK  Name = gant61.pdb
REMARK  11 active torsions:
REMARK  status: ('A' for Active; 'I' for Inactive)
REMARK    1  A    between atoms: C1_1  and  N1_2
REMARK    2  A    between atoms: N1_2  and  C2_3
REMARK    3  A    between atoms: N1_2  and  C3_4
REMARK    4  A    between atoms: C8_9  and  C9_10
REMARK    5  A    between atoms: C9_10  and  N2_11
REMARK    6  A    between atoms: N3_15  and  C19_23
REMARK    7  A    between atoms: C13_16  and  C14_17
REMARK    8  A    between atoms: C19_23  and  C20_24
REMARK    9  A    between atoms: C25_29  and  N5_30
REMARK   10  A    between atoms: N5_30  and  C26_31
REMARK   11  A    between atoms: N5_30  and  C27_32
REMARK                            x       y       z     vdW  Elec       q    Type
REMARK                         _______ _______ _______ _____ _____    ______ ____
ROOT
ATOM      1  N2  UNL     1     -33.050  -5.562   8.193  0.00  0.00    +0.000 NA
ATOM      2  C10 UNL     1     -33.032  -6.915   8.752  0.00  0.00    +0.000 C 
ATOM      3  C11 UNL     1     -31.629  -7.266   9.228  0.00  0.00    +0.000 C 
ATOM      4  C12 UNL     1     -30.607  -7.100   8.106  0.00  0.00    +0.000 C 
ATOM      5  N3  UNL     1     -31.219  -6.550   6.907  0.00  0.00    +0.000 NA
ATOM      6  C13 UNL     1     -32.044  -5.353   7.126  0.00  0.00    +0.000 C 
ENDROOT
BRANCH   6   7
ATOM      7  C14 UNL     1     -31.249  -4.068   7.375  0.00  0.00    +0.000 A 
ATOM      8  C15 UNL     1     -30.729  -3.289   6.335  0.00  0.00    +0.000 A 
ATOM      9  C16 UNL     1     -30.019  -2.139   6.642  0.00  0.00    +0.000 A 
ATOM     10  N4  UNL     1     -29.788  -1.706   7.899  0.00  0.00    +0.000 NA
ATOM     11  C17 UNL     1     -30.280  -2.474   8.893  0.00  0.00    +0.000 A 
ATOM     12  C18 UNL     1     -31.005  -3.638   8.687  0.00  0.00    +0.000 A 
ENDBRANCH   6   7
BRANCH   5  13
ATOM     13  C19 UNL     1     -30.293  -6.409   5.775  0.00  0.00    +0.000 C 
BRANCH  13  14
ATOM     14  C20 UNL     1     -30.903  -6.789   4.437  0.00  0.00    +0.000 A 
ATOM     15  C21 UNL     1     -31.228  -5.764   3.524  0.00  0.00    +0.000 A 
ATOM     16  C22 UNL     1     -31.795  -6.058   2.286  0.00  0.00    +0.000 A 
ATOM     17  C23 UNL     1     -32.049  -7.381   1.942  0.00  0.00    +0.000 A 
ATOM     18  C24 UNL     1     -31.741  -8.407   2.838  0.00  0.00    +0.000 A 
ATOM     19  C25 UNL     1     -31.175  -8.136   4.097  0.00  0.00    +0.000 A 
BRANCH  19  20
ATOM     20  N5  UNL     1     -30.864  -9.171   5.010  0.00  0.00    +0.000 N 
ATOM     21  C26 UNL     1     -32.020  -9.767   5.678  0.00  0.00    +0.000 C 
ATOM     22  C27 UNL     1     -29.956 -10.147   4.396  0.00  0.00    +0.000 C 
ENDBRANCH  19  20
ENDBRANCH  13  14
ENDBRANCH   5  13
BRANCH   1  23
ATOM     23  C9  UNL     1     -34.417  -5.247   7.715  0.00  0.00    +0.000 C 
BRANCH  23  29
ATOM     24  C3  UNL     1     -35.020  -4.682   5.288  0.00  0.00    +0.000 A 
ATOM     25  C4  UNL     1     -35.258  -5.122   3.973  0.00  0.00    +0.000 A 
ATOM     26  C5  UNL     1     -35.166  -6.472   3.632  0.00  0.00    +0.000 A 
ATOM     27  C6  UNL     1     -34.824  -7.409   4.599  0.00  0.00    +0.000 A 
ATOM     28  C7  UNL     1     -34.576  -6.994   5.906  0.00  0.00    +0.000 A 
ATOM     29  C8  UNL     1     -34.682  -5.638   6.270  0.00  0.00    +0.000 A 
BRANCH  24  31
ATOM     30  C1  UNL     1     -36.398  -2.714   5.340  0.00  0.00    +0.000 C 
ATOM     31  N1  UNL     1     -35.094  -3.311   5.636  0.00  0.00    +0.000 N 
ATOM     32  C2  UNL     1     -33.954  -2.563   5.099  0.00  0.00    +0.000 C 
ENDBRANCH  24  31
ENDBRANCH  23  29
ENDBRANCH   1  23
TORSDOF 7
ENDMDL
MODEL 15
REMARK VINA RESULT:    -5.071      5.052     11.463
REMARK INTER + INTRA:          -9.066
REMARK INTER:                  -7.373
REMARK INTRA:                  -1.692
REMARK UNBOUND:                -1.920
REMARK  Name = gant61.pdb
REMARK  11 active torsions:
REMARK  status: ('A' for Active; 'I' for Inactive)
REMARK    1  A    between atoms: C1_1  and  N1_2
REMARK    2  A    between atoms: N1_2  and  C2_3
REMARK    3  A    between atoms: N1_2  and  C3_4
REMARK    4  A    between atoms: C8_9  and  C9_10
REMARK    5  A    between atoms: C9_10  and  N2_11
REMARK    6  A    between atoms: N3_15  and  C19_23
REMARK    7  A    between atoms: C13_16  and  C14_17
REMARK    8  A    between atoms: C19_23  and  C20_24
REMARK    9  A    between atoms: C25_29  and  N5_30
REMARK   10  A    between atoms: N5_30  and  C26_31
REMARK   11  A    between atoms: N5_30  and  C27_32
REMARK                            x       y       z     vdW  Elec       q    Type
REMARK                         _______ _______ _______ _____ _____    ______ ____
ROOT
ATOM      1  N2  UNL     1     -34.628  -5.872   4.773  0.00  0.00    +0.000 NA
ATOM      2  C10 UNL     1     -35.204  -7.209   4.922  0.00  0.00    +0.000 C 
ATOM      3  C11 UNL     1     -34.293  -8.080   5.776  0.00  0.00    +0.000 C 
ATOM      4  C12 UNL     1     -32.880  -8.130   5.201  0.00  0.00    +0.000 C 
ATOM      5  N3  UNL     1     -32.742  -7.252   4.051  0.00  0.00    +0.000 NA
ATOM      6  C13 UNL     1     -33.241  -5.884   4.253  0.00  0.00    +0.000 C 
ENDROOT
BRANCH   6   7
ATOM      7  C14 UNL     1     -32.334  -4.994   5.109  0.00  0.00    +0.000 A 
ATOM      8  C15 UNL     1     -31.337  -4.182   4.557  0.00  0.00    +0.000 A 
ATOM      9  C16 UNL     1     -30.555  -3.405   5.399  0.00  0.00    +0.000 A 
ATOM     10  N4  UNL     1     -30.689  -3.377   6.741  0.00  0.00    +0.000 NA
ATOM     11  C17 UNL     1     -31.643  -4.176   7.262  0.00  0.00    +0.000 A 
ATOM     12  C18 UNL     1     -32.475  -4.985   6.504  0.00  0.00    +0.000 A 
ENDBRANCH   6   7
BRANCH   5  13
ATOM     13  C19 UNL     1     -31.413  -7.290   3.426  0.00  0.00    +0.000 C 
BRANCH  13  14
ATOM     14  C20 UNL     1     -31.405  -7.934   2.049  0.00  0.00    +0.000 A 
ATOM     15  C21 UNL     1     -32.192  -7.363   1.029  0.00  0.00    +0.000 A 
ATOM     16  C22 UNL     1     -32.226  -7.918  -0.248  0.00  0.00    +0.000 A 
ATOM     17  C23 UNL     1     -31.474  -9.054  -0.526  0.00  0.00    +0.000 A 
ATOM     18  C24 UNL     1     -30.696  -9.637   0.477  0.00  0.00    +0.000 A 
ATOM     19  C25 UNL     1     -30.652  -9.101   1.776  0.00  0.00    +0.000 A 
BRANCH  19  20
ATOM     20  N5  UNL     1     -29.867  -9.689   2.796  0.00  0.00    +0.000 N 
ATOM     21  C26 UNL     1     -30.489 -10.831   3.466  0.00  0.00    +0.000 C 
ATOM     22  C27 UNL     1     -28.503  -9.944   2.318  0.00  0.00    +0.000 C 
ENDBRANCH  19  20
ENDBRANCH  13  14
ENDBRANCH   5  13
BRANCH   1  23
ATOM     23  C9  UNL     1     -35.516  -5.046   3.922  0.00  0.00    +0.000 C 
BRANCH  23  29
ATOM     24  C3  UNL     1     -37.552  -3.517   4.221  0.00  0.00    +0.000 A 
ATOM     25  C4  UNL     1     -38.215  -2.528   4.970  0.00  0.00    +0.000 A 
ATOM     26  C5  UNL     1     -37.658  -2.010   6.141  0.00  0.00    +0.000 A 
ATOM     27  C6  UNL     1     -36.431  -2.480   6.591  0.00  0.00    +0.000 A 
ATOM     28  C7  UNL     1     -35.761  -3.465   5.869  0.00  0.00    +0.000 A 
ATOM     29  C8  UNL     1     -36.301  -3.985   4.676  0.00  0.00    +0.000 A 
BRANCH  24  31
ATOM     30  C1  UNL     1     -38.539  -3.033   2.084  0.00  0.00    +0.000 C 
ATOM     31  N1  UNL     1     -38.120  -4.059   3.042  0.00  0.00    +0.000 N 
ATOM     32  C2  UNL     1     -39.155  -5.047   3.355  0.00  0.00    +0.000 C 
ENDBRANCH  24  31
ENDBRANCH  23  29
ENDBRANCH   1  23
TORSDOF 7
ENDMDL
MODEL 16
REMARK VINA RESULT:    -5.052      7.272     12.271
REMARK INTER + INTRA:          -9.039
REMARK INTER:                  -6.654
REMARK INTRA:                  -2.385
REMARK UNBOUND:                -1.920
REMARK  Name = gant61.pdb
REMARK  11 active torsions:
REMARK  status: ('A' for Active; 'I' for Inactive)
REMARK    1  A    between atoms: C1_1  and  N1_2
REMARK    2  A    between atoms: N1_2  and  C2_3
REMARK    3  A    between atoms: N1_2  and  C3_4
REMARK    4  A    between atoms: C8_9  and  C9_10
REMARK    5  A    between atoms: C9_10  and  N2_11
REMARK    6  A    between atoms: N3_15  and  C19_23
REMARK    7  A    between atoms: C13_16  and  C14_17
REMARK    8  A    between atoms: C19_23  and  C20_24
REMARK    9  A    between atoms: C25_29  and  N5_30
REMARK   10  A    between atoms: N5_30  and  C26_31
REMARK   11  A    between atoms: N5_30  and  C27_32
REMARK                            x       y       z     vdW  Elec       q    Type
REMARK                         _______ _______ _______ _____ _____    ______ ____
ROOT
ATOM      1  N2  UNL     1     -32.165  -3.200   7.535  0.00  0.00    +0.000 NA
ATOM      2  C10 UNL     1     -30.763  -2.903   7.831  0.00  0.00    +0.000 C 
ATOM      3  C11 UNL     1     -30.148  -2.094   6.697  0.00  0.00    +0.000 C 
ATOM      4  C12 UNL     1     -30.308  -2.810   5.358  0.00  0.00    +0.000 C 
ATOM      5  N3  UNL     1     -31.096  -4.024   5.495  0.00  0.00    +0.000 NA
ATOM      6  C13 UNL     1     -32.362  -3.862   6.225  0.00  0.00    +0.000 C 
ENDROOT
BRANCH   6   7
ATOM      7  C14 UNL     1     -33.472  -3.167   5.429  0.00  0.00    +0.000 A 
ATOM      8  C15 UNL     1     -33.428  -1.806   5.106  0.00  0.00    +0.000 A 
ATOM      9  C16 UNL     1     -34.472  -1.249   4.383  0.00  0.00    +0.000 A 
ATOM     10  N4  UNL     1     -35.551  -1.940   3.960  0.00  0.00    +0.000 NA
ATOM     11  C17 UNL     1     -35.589  -3.248   4.292  0.00  0.00    +0.000 A 
ATOM     12  C18 UNL     1     -34.593  -3.894   5.008  0.00  0.00    +0.000 A 
ENDBRANCH   6   7
BRANCH   5  13
ATOM     13  C19 UNL     1     -31.247  -4.783   4.246  0.00  0.00    +0.000 C 
BRANCH  13  14
ATOM     14  C20 UNL     1     -31.210  -6.289   4.440  0.00  0.00    +0.000 A 
ATOM     15  C21 UNL     1     -30.331  -6.827   5.402  0.00  0.00    +0.000 A 
ATOM     16  C22 UNL     1     -30.253  -8.202   5.614  0.00  0.00    +0.000 A 
ATOM     17  C23 UNL     1     -31.051  -9.061   4.867  0.00  0.00    +0.000 A 
ATOM     18  C24 UNL     1     -31.920  -8.544   3.903  0.00  0.00    +0.000 A 
ATOM     19  C25 UNL     1     -32.012  -7.161   3.665  0.00  0.00    +0.000 A 
BRANCH  19  20
ATOM     20  N5  UNL     1     -32.889  -6.632   2.688  0.00  0.00    +0.000 N 
ATOM     21  C26 UNL     1     -32.465  -6.844   1.305  0.00  0.00    +0.000 C 
ATOM     22  C27 UNL     1     -34.273  -7.038   2.961  0.00  0.00    +0.000 C 
ENDBRANCH  19  20
ENDBRANCH  13  14
ENDBRANCH   5  13
BRANCH   1  23
ATOM     23  C9  UNL     1     -32.739  -4.005   8.638  0.00  0.00    +0.000 C 
BRANCH  23  29
ATOM     24  C3  UNL     1     -32.876  -6.559   8.455  0.00  0.00    +0.000 A 
ATOM     25  C4  UNL     1     -32.258  -7.812   8.616  0.00  0.00    +0.000 A 
ATOM     26  C5  UNL     1     -30.947  -7.919   9.082  0.00  0.00    +0.000 A 
ATOM     27  C6  UNL     1     -30.224  -6.772   9.388  0.00  0.00    +0.000 A 
ATOM     28  C7  UNL     1     -30.814  -5.521   9.228  0.00  0.00    +0.000 A 
ATOM     29  C8  UNL     1     -32.143  -5.396   8.776  0.00  0.00    +0.000 A 
BRANCH  24  31
ATOM     30  C1  UNL     1     -35.214  -6.772   8.970  0.00  0.00    +0.000 C 
ATOM     31  N1  UNL     1     -34.200  -6.443   7.965  0.00  0.00    +0.000 N 
ATOM     32  C2  UNL     1     -34.361  -7.152   6.694  0.00  0.00    +0.000 C 
ENDBRANCH  24  31
ENDBRANCH  23  29
ENDBRANCH   1  23
TORSDOF 7
ENDMDL
MODEL 17
REMARK VINA RESULT:    -5.021      2.963      4.498
REMARK INTER + INTRA:          -8.996
REMARK INTER:                  -6.425
REMARK INTRA:                  -2.571
REMARK UNBOUND:                -1.920
REMARK  Name = gant61.pdb
REMARK  11 active torsions:
REMARK  status: ('A' for Active; 'I' for Inactive)
REMARK    1  A    between atoms: C1_1  and  N1_2
REMARK    2  A    between atoms: N1_2  and  C2_3
REMARK    3  A    between atoms: N1_2  and  C3_4
REMARK    4  A    between atoms: C8_9  and  C9_10
REMARK    5  A    between atoms: C9_10  and  N2_11
REMARK    6  A    between atoms: N3_15  and  C19_23
REMARK    7  A    between atoms: C13_16  and  C14_17
REMARK    8  A    between atoms: C19_23  and  C20_24
REMARK    9  A    between atoms: C25_29  and  N5_30
REMARK   10  A    between atoms: N5_30  and  C26_31
REMARK   11  A    between atoms: N5_30  and  C27_32
REMARK                            x       y       z     vdW  Elec       q    Type
REMARK                         _______ _______ _______ _____ _____    ______ ____
ROOT
ATOM      1  N2  UNL     1     -26.270  -9.661  -4.085  0.00  0.00    +0.000 NA
ATOM      2  C10 UNL     1     -26.242  -8.694  -2.986  0.00  0.00    +0.000 C 
ATOM      3  C11 UNL     1     -25.748  -9.363  -1.711  0.00  0.00    +0.000 C 
ATOM      4  C12 UNL     1     -26.589 -10.589  -1.369  0.00  0.00    +0.000 C 
ATOM      5  N3  UNL     1     -27.576 -10.862  -2.401  0.00  0.00    +0.000 NA
ATOM      6  C13 UNL     1     -27.048 -10.883  -3.773  0.00  0.00    +0.000 C 
ENDROOT
BRANCH   6   7
ATOM      7  C14 UNL     1     -26.247 -12.140  -4.129  0.00  0.00    +0.000 A 
ATOM      8  C15 UNL     1     -24.869 -12.242  -3.911  0.00  0.00    +0.000 A 
ATOM      9  C16 UNL     1     -24.214 -13.413  -4.262  0.00  0.00    +0.000 A 
ATOM     10  N4  UNL     1     -24.824 -14.484  -4.810  0.00  0.00    +0.000 NA
ATOM     11  C17 UNL     1     -26.151 -14.367  -5.030  0.00  0.00    +0.000 A 
ATOM     12  C18 UNL     1     -26.892 -13.240  -4.712  0.00  0.00    +0.000 A 
ENDBRANCH   6   7
BRANCH   5  13
ATOM     13  C19 UNL     1     -28.449 -12.007  -2.106  0.00  0.00    +0.000 C 
BRANCH  13  14
ATOM     14  C20 UNL     1     -29.877 -11.825  -2.590  0.00  0.00    +0.000 A 
ATOM     15  C21 UNL     1     -30.491 -10.565  -2.435  0.00  0.00    +0.000 A 
ATOM     16  C22 UNL     1     -31.801 -10.347  -2.856  0.00  0.00    +0.000 A 
ATOM     17  C23 UNL     1     -32.519 -11.385  -3.437  0.00  0.00    +0.000 A 
ATOM     18  C24 UNL     1     -31.929 -12.642  -3.591  0.00  0.00    +0.000 A 
ATOM     19  C25 UNL     1     -30.611 -12.890  -3.167  0.00  0.00    +0.000 A 
BRANCH  19  20
ATOM     20  N5  UNL     1     -30.009 -14.161  -3.317  0.00  0.00    +0.000 N 
ATOM     21  C26 UNL     1     -30.340 -15.124  -2.267  0.00  0.00    +0.000 C 
ATOM     22  C27 UNL     1     -30.204 -14.669  -4.680  0.00  0.00    +0.000 C 
ENDBRANCH  19  20
ENDBRANCH  13  14
ENDBRANCH   5  13
BRANCH   1  23
ATOM     23  C9  UNL     1     -26.774  -8.999  -5.310  0.00  0.00    +0.000 C 
BRANCH  23  29
ATOM     24  C3  UNL     1     -27.374 -10.569  -7.245  0.00  0.00    +0.000 A 
ATOM     25  C4  UNL     1     -28.351 -11.307  -7.938  0.00  0.00    +0.000 A 
ATOM     26  C5  UNL     1     -29.683 -11.317  -7.522  0.00  0.00    +0.000 A 
ATOM     27  C6  UNL     1     -30.063 -10.594  -6.398  0.00  0.00    +0.000 A 
ATOM     28  C7  UNL     1     -29.111  -9.862  -5.693  0.00  0.00    +0.000 A 
ATOM     29  C8  UNL     1     -27.765  -9.828  -6.110  0.00  0.00    +0.000 A 
BRANCH  24  31
ATOM     30  C1  UNL     1     -25.761  -9.691  -8.795  0.00  0.00    +0.000 C 
ATOM     31  N1  UNL     1     -26.017 -10.570  -7.652  0.00  0.00    +0.000 N 
ATOM     32  C2  UNL     1     -25.513 -11.935  -7.819  0.00  0.00    +0.000 C 
ENDBRANCH  24  31
ENDBRANCH  23  29
ENDBRANCH   1  23
TORSDOF 7
ENDMDL
MODEL 18
REMARK VINA RESULT:    -5.018      5.851     11.883
REMARK INTER + INTRA:          -8.992
REMARK INTER:                  -7.139
REMARK INTRA:                  -1.853
REMARK UNBOUND:                -1.920
REMARK  Name = gant61.pdb
REMARK  11 active torsions:
REMARK  status: ('A' for Active; 'I' for Inactive)
REMARK    1  A    between atoms: C1_1  and  N1_2
REMARK    2  A    between atoms: N1_2  and  C2_3
REMARK    3  A    between atoms: N1_2  and  C3_4
REMARK    4  A    between atoms: C8_9  and  C9_10
REMARK    5  A    between atoms: C9_10  and  N2_11
REMARK    6  A    between atoms: N3_15  and  C19_23
REMARK    7  A    between atoms: C13_16  and  C14_17
REMARK    8  A    between atoms: C19_23  and  C20_24
REMARK    9  A    between atoms: C25_29  and  N5_30
REMARK   10  A    between atoms: N5_30  and  C26_31
REMARK   11  A    between atoms: N5_30  and  C27_32
REMARK                            x       y       z     vdW  Elec       q    Type
REMARK                         _______ _______ _______ _____ _____    ______ ____
ROOT
ATOM      1  N2  UNL     1     -32.940  -3.907   5.477  0.00  0.00    +0.000 NA
ATOM      2  C10 UNL     1     -34.208  -3.810   4.754  0.00  0.00    +0.000 C 
ATOM      3  C11 UNL     1     -35.175  -4.879   5.244  0.00  0.00    +0.000 C 
ATOM      4  C12 UNL     1     -34.561  -6.272   5.131  0.00  0.00    +0.000 C 
ATOM      5  N3  UNL     1     -33.179  -6.209   4.684  0.00  0.00    +0.000 NA
ATOM      6  C13 UNL     1     -32.333  -5.258   5.420  0.00  0.00    +0.000 C 
ENDROOT
BRANCH   6   7
ATOM      7  C14 UNL     1     -31.917  -5.724   6.819  0.00  0.00    +0.000 A 
ATOM      8  C15 UNL     1     -32.718  -5.523   7.949  0.00  0.00    +0.000 A 
ATOM      9  C16 UNL     1     -32.272  -5.973   9.182  0.00  0.00    +0.000 A 
ATOM     10  N4  UNL     1     -31.095  -6.604   9.375  0.00  0.00    +0.000 NA
ATOM     11  C17 UNL     1     -30.325  -6.777   8.281  0.00  0.00    +0.000 A 
ATOM     12  C18 UNL     1     -30.685  -6.365   7.007  0.00  0.00    +0.000 A 
ENDBRANCH   6   7
BRANCH   5  13
ATOM     13  C19 UNL     1     -32.546  -7.524   4.512  0.00  0.00    +0.000 C 
BRANCH  13  14
ATOM     14  C20 UNL     1     -32.218  -7.858   3.067  0.00  0.00    +0.000 A 
ATOM     15  C21 UNL     1     -32.923  -7.196   2.041  0.00  0.00    +0.000 A 
ATOM     16  C22 UNL     1     -32.666  -7.471   0.700  0.00  0.00    +0.000 A 
ATOM     17  C23 UNL     1     -31.701  -8.412   0.362  0.00  0.00    +0.000 A 
ATOM     18  C24 UNL     1     -31.000  -9.083   1.367  0.00  0.00    +0.000 A 
ATOM     19  C25 UNL     1     -31.246  -8.830   2.728  0.00  0.00    +0.000 A 
BRANCH  19  20
ATOM     20  N5  UNL     1     -30.541  -9.509   3.750  0.00  0.00    +0.000 N 
ATOM     21  C26 UNL     1     -30.676 -10.965   3.725  0.00  0.00    +0.000 C 
ATOM     22  C27 UNL     1     -29.153  -9.036   3.823  0.00  0.00    +0.000 C 
ENDBRANCH  19  20
ENDBRANCH  13  14
ENDBRANCH   5  13
BRANCH   1  23
ATOM     23  C9  UNL     1     -32.006  -2.875   4.972  0.00  0.00    +0.000 C 
BRANCH  23  29
ATOM     24  C3  UNL     1     -32.005  -0.661   6.265  0.00  0.00    +0.000 A 
ATOM     25  C4  UNL     1     -31.442   0.146   7.270  0.00  0.00    +0.000 A 
ATOM     26  C5  UNL     1     -30.365  -0.299   8.038  0.00  0.00    +0.000 A 
ATOM     27  C6  UNL     1     -29.837  -1.566   7.823  0.00  0.00    +0.000 A 
ATOM     28  C7  UNL     1     -30.385  -2.385   6.838  0.00  0.00    +0.000 A 
ATOM     29  C8  UNL     1     -31.460  -1.943   6.042  0.00  0.00    +0.000 A 
BRANCH  24  31
ATOM     30  C1  UNL     1     -32.842   1.019   4.764  0.00  0.00    +0.000 C 
ATOM     31  N1  UNL     1     -33.110  -0.222   5.494  0.00  0.00    +0.000 N 
ATOM     32  C2  UNL     1     -34.339  -0.198   6.291  0.00  0.00    +0.000 C 
ENDBRANCH  24  31
ENDBRANCH  23  29
ENDBRANCH   1  23
TORSDOF 7
ENDMDL
MODEL 19
REMARK VINA RESULT:    -5.000      2.210      8.078
REMARK INTER + INTRA:          -8.966
REMARK INTER:                  -7.124
REMARK INTRA:                  -1.843
REMARK UNBOUND:                -1.920
REMARK  Name = gant61.pdb
REMARK  11 active torsions:
REMARK  status: ('A' for Active; 'I' for Inactive)
REMARK    1  A    between atoms: C1_1  and  N1_2
REMARK    2  A    between atoms: N1_2  and  C2_3
REMARK    3  A    between atoms: N1_2  and  C3_4
REMARK    4  A    between atoms: C8_9  and  C9_10
REMARK    5  A    between atoms: C9_10  and  N2_11
REMARK    6  A    between atoms: N3_15  and  C19_23
REMARK    7  A    between atoms: C13_16  and  C14_17
REMARK    8  A    between atoms: C19_23  and  C20_24
REMARK    9  A    between atoms: C25_29  and  N5_30
REMARK   10  A    between atoms: N5_30  and  C26_31
REMARK   11  A    between atoms: N5_30  and  C27_32
REMARK                            x       y       z     vdW  Elec       q    Type
REMARK                         _______ _______ _______ _____ _____    ______ ____
ROOT
ATOM      1  N2  UNL     1     -28.735 -10.371  -4.631  0.00  0.00    +0.000 NA
ATOM      2  C10 UNL     1     -29.608  -9.754  -5.631  0.00  0.00    +0.000 C 
ATOM      3  C11 UNL     1     -30.049 -10.791  -6.654  0.00  0.00    +0.000 C 
ATOM      4  C12 UNL     1     -28.846 -11.478  -7.296  0.00  0.00    +0.000 C 
ATOM      5  N3  UNL     1     -27.598 -11.042  -6.691  0.00  0.00    +0.000 NA
ATOM      6  C13 UNL     1     -27.576 -11.081  -5.221  0.00  0.00    +0.000 C 
ENDROOT
BRANCH   6   7
ATOM      7  C14 UNL     1     -27.439 -12.484  -4.622  0.00  0.00    +0.000 A 
ATOM      8  C15 UNL     1     -28.546 -13.286  -4.320  0.00  0.00    +0.000 A 
ATOM      9  C16 UNL     1     -28.340 -14.546  -3.779  0.00  0.00    +0.000 A 
ATOM     10  N4  UNL     1     -27.123 -15.065  -3.515  0.00  0.00    +0.000 NA
ATOM     11  C17 UNL     1     -26.065 -14.276  -3.795  0.00  0.00    +0.000 A 
ATOM     12  C18 UNL     1     -26.169 -13.005  -4.340  0.00  0.00    +0.000 A 
ENDBRANCH   6   7
BRANCH   5  13
ATOM     13  C19 UNL     1     -26.400 -11.636  -7.297  0.00  0.00    +0.000 C 
BRANCH  13  14
ATOM     14  C20 UNL     1     -25.734 -10.745  -8.332  0.00  0.00    +0.000 A 
ATOM     15  C21 UNL     1     -26.245 -10.733  -9.646  0.00  0.00    +0.000 A 
ATOM     16  C22 UNL     1     -25.667  -9.939 -10.634  0.00  0.00    +0.000 A 
ATOM     17  C23 UNL     1     -24.570  -9.145 -10.325  0.00  0.00    +0.000 A 
ATOM     18  C24 UNL     1     -24.046  -9.151  -9.030  0.00  0.00    +0.000 A 
ATOM     19  C25 UNL     1     -24.606  -9.950  -8.017  0.00  0.00    +0.000 A 
BRANCH  19  20
ATOM     20  N5  UNL     1     -24.079  -9.963  -6.704  0.00  0.00    +0.000 N 
ATOM     21  C26 UNL     1     -22.643 -10.230  -6.622  0.00  0.00    +0.000 C 
ATOM     22  C27 UNL     1     -24.511  -8.773  -5.961  0.00  0.00    +0.000 C 
ENDBRANCH  19  20
ENDBRANCH  13  14
ENDBRANCH   5  13
BRANCH   1  23
ATOM     23  C9  UNL     1     -28.300  -9.343  -3.658  0.00  0.00    +0.000 C 
BRANCH  23  29
ATOM     24  C3  UNL     1     -29.212 -10.095  -1.383  0.00  0.00    +0.000 A 
ATOM     25  C4  UNL     1     -28.961 -10.565  -0.081  0.00  0.00    +0.000 A 
ATOM     26  C5  UNL     1     -27.661 -10.799   0.367  0.00  0.00    +0.000 A 
ATOM     27  C6  UNL     1     -26.584 -10.575  -0.482  0.00  0.00    +0.000 A 
ATOM     28  C7  UNL     1     -26.810 -10.116  -1.778  0.00  0.00    +0.000 A 
ATOM     29  C8  UNL     1     -28.116  -9.858  -2.240  0.00  0.00    +0.000 A 
BRANCH  24  31
ATOM     30  C1  UNL     1     -31.330  -9.049  -0.940  0.00  0.00    +0.000 C 
ATOM     31  N1  UNL     1     -30.531  -9.873  -1.850  0.00  0.00    +0.000 N 
ATOM     32  C2  UNL     1     -31.173 -11.128  -2.245  0.00  0.00    +0.000 C 
ENDBRANCH  24  31
ENDBRANCH  23  29
ENDBRANCH   1  23
TORSDOF 7
ENDMDL
