REMARK  Name = gant61.pdb
REMARK  11 active torsions:
REMARK  status: ('A' for Active; 'I' for Inactive)
REMARK    1  A    between atoms: C1_1  and  N1_2
REMARK    2  A    between atoms: N1_2  and  C2_3
REMARK    3  A    between atoms: N1_2  and  C3_4
REMARK    4  A    between atoms: C8_9  and  C9_10
REMARK    5  A    between atoms: C9_10  and  N2_11
REMARK    6  A    between atoms: N3_15  and  C19_23
REMARK    7  A    between atoms: C13_16  and  C14_17
REMARK    8  A    between atoms: C19_23  and  C20_24
REMARK    9  A    between atoms: C25_29  and  N5_30
REMARK   10  A    between atoms: N5_30  and  C26_31
REMARK   11  A    between atoms: N5_30  and  C27_32
REMARK                            x       y       z     vdW  Elec       q    Type
REMARK                         _______ _______ _______ _____ _____    ______ ____
ROOT
<<<<<<< HEAD
ATOM      1  N2  UNL     1       2.054  -0.831   0.652  0.00  0.00    +0.000 NA
ATOM      2  C10 UNL     1       2.759  -1.770  -0.222  0.00  0.00    +0.000 C 
ATOM      3  C11 UNL     1       3.329  -1.036  -1.428  0.00  0.00    +0.000 C 
ATOM      4  C12 UNL     1       2.239  -0.272  -2.175  0.00  0.00    +0.000 C 
ATOM      5  N3  UNL     1       0.962  -0.356  -1.485  0.00  0.00    +0.000 NA
ATOM      6  C13 UNL     1       1.013  -0.044  -0.049  0.00  0.00    +0.000 C 
ENDROOT
BRANCH   6   7
ATOM      7  C14 UNL     1       1.152   1.447   0.275  0.00  0.00    +0.000 A 
ATOM      8  C15 UNL     1       2.380   2.117   0.229  0.00  0.00    +0.000 A 
ATOM      9  C16 UNL     1       2.425   3.468   0.537  0.00  0.00    +0.000 A 
ATOM     10  N4  UNL     1       1.346   4.199   0.887  0.00  0.00    +0.000 NA
ATOM     11  C17 UNL     1       0.171   3.538   0.944  0.00  0.00    +0.000 A 
ATOM     12  C18 UNL     1       0.025   2.191   0.651  0.00  0.00    +0.000 A 
ENDBRANCH   6   7
BRANCH   5  13
ATOM     13  C19 UNL     1      -0.139   0.324  -2.180  0.00  0.00    +0.000 C 
BRANCH  13  14
ATOM     14  C20 UNL     1      -0.663  -0.439  -3.385  0.00  0.00    +0.000 A 
ATOM     15  C21 UNL     1      -0.154  -0.123  -4.661  0.00  0.00    +0.000 A 
ATOM     16  C22 UNL     1      -0.605  -0.788  -5.799  0.00  0.00    +0.000 A 
ATOM     17  C23 UNL     1      -1.573  -1.778  -5.680  0.00  0.00    +0.000 A 
ATOM     18  C24 UNL     1      -2.094  -2.097  -4.424  0.00  0.00    +0.000 A 
ATOM     19  C25 UNL     1      -1.661  -1.435  -3.261  0.00  0.00    +0.000 A 
BRANCH  19  20
ATOM     20  N5  UNL     1      -2.187  -1.752  -1.986  0.00  0.00    +0.000 N 
ATOM     21  C26 UNL     1      -3.644  -1.866  -1.935  0.00  0.00    +0.000 C 
ATOM     22  C27 UNL     1      -1.475  -2.895  -1.402  0.00  0.00    +0.000 C 
ENDBRANCH  19  20
ENDBRANCH  13  14
ENDBRANCH   5  13
BRANCH   1  23
ATOM     23  C9  UNL     1       1.488  -1.566   1.807  0.00  0.00    +0.000 C 
BRANCH  23  29
ATOM     24  C3  UNL     1      -0.376  -0.784   3.384  0.00  0.00    +0.000 A 
ATOM     25  C4  UNL     1      -0.802   0.080   4.409  0.00  0.00    +0.000 A 
ATOM     26  C5  UNL     1       0.059   1.029   4.962  0.00  0.00    +0.000 A 
ATOM     27  C6  UNL     1       1.368   1.126   4.506  0.00  0.00    +0.000 A 
ATOM     28  C7  UNL     1       1.813   0.275   3.497  0.00  0.00    +0.000 A 
ATOM     29  C8  UNL     1       0.951  -0.676   2.916  0.00  0.00    +0.000 A 
BRANCH  24  31
ATOM     30  C1  UNL     1      -2.455  -1.188   2.248  0.00  0.00    +0.000 C 
ATOM     31  N1  UNL     1      -1.240  -1.761   2.831  0.00  0.00    +0.000 N 
ATOM     32  C2  UNL     1      -1.484  -2.852   3.778  0.00  0.00    +0.000 C 
ENDBRANCH  24  31
ENDBRANCH  23  29
ENDBRANCH   1  23
=======
ATOM      1  C10 UNL     1      -0.313   1.048  -0.043  0.00  0.00    +0.000 C 
ENDROOT
BRANCH   1   2
ATOM      2  C20 UNL     1      -0.224   2.101   1.049  0.00  0.00    +0.000 A 
ATOM      3  C21 UNL     1       0.100   1.766   2.375  0.00  0.00    +0.000 A 
ATOM      4  C22 UNL     1       0.176   2.754   3.357  0.00  0.00    +0.000 A 
ATOM      5  C23 UNL     1      -0.086   4.085   3.033  0.00  0.00    +0.000 A 
ATOM      6  C24 UNL     1      -0.433   4.428   1.728  0.00  0.00    +0.000 A 
ATOM      7  C25 UNL     1      -0.507   3.442   0.743  0.00  0.00    +0.000 A 
ENDBRANCH   1   2
BRANCH   1  10
ATOM      8  C9  UNL     1      -2.677   0.759  -0.698  0.00  0.00    +0.000 C 
ATOM      9  O3  UNL     1      -2.655   1.728  -1.450  0.00  0.00    +0.000 OA
ATOM     10  N1  UNL     1      -1.589   0.353   0.037  0.00  0.00    +0.000 N 
ATOM     11  H10 UNL     1      -1.560  -0.572   0.450  0.00  0.00    +0.000 HD
BRANCH   8  15
ATOM     12  C2  UNL     1      -6.273  -1.580  -0.433  0.00  0.00    +0.000 A 
ATOM     13  C3  UNL     1      -5.354  -1.598   0.622  0.00  0.00    +0.000 A 
ATOM     14  C4  UNL     1      -4.180  -0.842   0.554  0.00  0.00    +0.000 A 
ATOM     15  C5  UNL     1      -3.911  -0.067  -0.578  0.00  0.00    +0.000 A 
ATOM     16  C6  UNL     1      -4.834  -0.033  -1.632  0.00  0.00    +0.000 A 
ATOM     17  C7  UNL     1      -6.013  -0.784  -1.568  0.00  0.00    +0.000 A 
BRANCH  12  19
ATOM     18  C1  UNL     1      -7.794  -3.023   0.715  0.00  0.00    +0.000 C 
ATOM     19  O1  UNL     1      -7.445  -2.293  -0.453  0.00  0.00    +0.000 OA
ENDBRANCH  12  19
BRANCH  17  20
ATOM     20  O2  UNL     1      -6.965  -0.814  -2.557  0.00  0.00    +0.000 OA
ATOM     21  C8  UNL     1      -6.802   0.075  -3.652  0.00  0.00    +0.000 C 
ENDBRANCH  17  20
ENDBRANCH   8  15
ENDBRANCH   1  10
BRANCH   1  22
ATOM     22  C11 UNL     1       0.841   0.012   0.025  0.00  0.00    +0.000 C 
ATOM     23  O4  UNL     1       0.609  -1.180   0.234  0.00  0.00    +0.000 OA
ATOM     24  N2  UNL     1       2.093   0.583  -0.155  0.00  0.00    +0.000 N 
ATOM     25  H12 UNL     1       2.122   1.597  -0.194  0.00  0.00    +0.000 HD
BRANCH  24  26
ATOM     26  C12 UNL     1       3.347  -0.064  -0.161  0.00  0.00    +0.000 A 
ATOM     27  C13 UNL     1       3.505  -1.453  -0.142  0.00  0.00    +0.000 A 
ATOM     28  C14 UNL     1       4.775  -2.053  -0.140  0.00  0.00    +0.000 A 
ATOM     29  C15 UNL     1       5.885  -1.202  -0.163  0.00  0.00    +0.000 A 
ATOM     30  C16 UNL     1       5.759   0.183  -0.193  0.00  0.00    +0.000 A 
ATOM     31  C17 UNL     1       4.480   0.763  -0.197  0.00  0.00    +0.000 A 
ATOM     32  N3  UNL     1       6.987   0.794  -0.210  0.00  0.00    +0.000 NA
ATOM     33  C18 UNL     1       7.860  -0.180  -0.192  0.00  0.00    +0.000 A 
ATOM     34  N4  UNL     1       7.245  -1.409  -0.153  0.00  0.00    +0.000 N 
ATOM     35  C19 UNL     1       7.918  -2.681  -0.069  0.00  0.00    +0.000 C 
ATOM     36  N5  UNL     1       9.196  -0.033  -0.205  0.00  0.00    +0.000 N 
ATOM     37  H19 UNL     1       9.757  -0.695  -0.732  0.00  0.00    +0.000 HD
ATOM     38  H20 UNL     1       9.486   0.923  -0.399  0.00  0.00    +0.000 HD
ENDBRANCH  24  26
ENDBRANCH   1  22
>>>>>>> 43f053a373a8a2180990aa86efec7ca2098bb521
TORSDOF 7
