REMARK  Name = gant61.pdb
REMARK  11 active torsions:
REMARK  status: ('A' for Active; 'I' for Inactive)
REMARK    1  A    between atoms: C1_1  and  N1_2
REMARK    2  A    between atoms: N1_2  and  C2_3
REMARK    3  A    between atoms: N1_2  and  C3_4
REMARK    4  A    between atoms: C8_9  and  C9_10
REMARK    5  A    between atoms: C9_10  and  N2_11
REMARK    6  A    between atoms: N3_15  and  C19_23
REMARK    7  A    between atoms: C13_16  and  C14_17
REMARK    8  A    between atoms: C19_23  and  C20_24
REMARK    9  A    between atoms: C25_29  and  N5_30
REMARK   10  A    between atoms: N5_30  and  C26_31
REMARK   11  A    between atoms: N5_30  and  C27_32
REMARK                            x       y       z     vdW  Elec       q    Type
REMARK                         _______ _______ _______ _____ _____    ______ ____
ROOT
ATOM      1  N2  UNL     1       2.054  -0.831   0.652  0.00  0.00    +0.000 NA
ATOM      2  C10 UNL     1       2.759  -1.770  -0.222  0.00  0.00    +0.000 C 
ATOM      3  C11 UNL     1       3.329  -1.036  -1.428  0.00  0.00    +0.000 C 
ATOM      4  C12 UNL     1       2.239  -0.272  -2.175  0.00  0.00    +0.000 C 
ATOM      5  N3  UNL     1       0.962  -0.356  -1.485  0.00  0.00    +0.000 NA
ATOM      6  C13 UNL     1       1.013  -0.044  -0.049  0.00  0.00    +0.000 C 
ENDROOT
BRANCH   6   7
ATOM      7  C14 UNL     1       1.152   1.447   0.275  0.00  0.00    +0.000 A 
ATOM      8  C15 UNL     1       2.380   2.117   0.229  0.00  0.00    +0.000 A 
ATOM      9  C16 UNL     1       2.425   3.468   0.537  0.00  0.00    +0.000 A 
ATOM     10  N4  UNL     1       1.346   4.199   0.887  0.00  0.00    +0.000 NA
ATOM     11  C17 UNL     1       0.171   3.538   0.944  0.00  0.00    +0.000 A 
ATOM     12  C18 UNL     1       0.025   2.191   0.651  0.00  0.00    +0.000 A 
ENDBRANCH   6   7
BRANCH   5  13
ATOM     13  C19 UNL     1      -0.139   0.324  -2.180  0.00  0.00    +0.000 C 
BRANCH  13  14
ATOM     14  C20 UNL     1      -0.663  -0.439  -3.385  0.00  0.00    +0.000 A 
ATOM     15  C21 UNL     1      -0.154  -0.123  -4.661  0.00  0.00    +0.000 A 
ATOM     16  C22 UNL     1      -0.605  -0.788  -5.799  0.00  0.00    +0.000 A 
ATOM     17  C23 UNL     1      -1.573  -1.778  -5.680  0.00  0.00    +0.000 A 
ATOM     18  C24 UNL     1      -2.094  -2.097  -4.424  0.00  0.00    +0.000 A 
ATOM     19  C25 UNL     1      -1.661  -1.435  -3.261  0.00  0.00    +0.000 A 
BRANCH  19  20
ATOM     20  N5  UNL     1      -2.187  -1.752  -1.986  0.00  0.00    +0.000 N 
ATOM     21  C26 UNL     1      -3.644  -1.866  -1.935  0.00  0.00    +0.000 C 
ATOM     22  C27 UNL     1      -1.475  -2.895  -1.402  0.00  0.00    +0.000 C 
ENDBRANCH  19  20
ENDBRANCH  13  14
ENDBRANCH   5  13
BRANCH   1  23
ATOM     23  C9  UNL     1       1.488  -1.566   1.807  0.00  0.00    +0.000 C 
BRANCH  23  29
ATOM     24  C3  UNL     1      -0.376  -0.784   3.384  0.00  0.00    +0.000 A 
ATOM     25  C4  UNL     1      -0.802   0.080   4.409  0.00  0.00    +0.000 A 
ATOM     26  C5  UNL     1       0.059   1.029   4.962  0.00  0.00    +0.000 A 
ATOM     27  C6  UNL     1       1.368   1.126   4.506  0.00  0.00    +0.000 A 
ATOM     28  C7  UNL     1       1.813   0.275   3.497  0.00  0.00    +0.000 A 
ATOM     29  C8  UNL     1       0.951  -0.676   2.916  0.00  0.00    +0.000 A 
BRANCH  24  31
ATOM     30  C1  UNL     1      -2.455  -1.188   2.248  0.00  0.00    +0.000 C 
ATOM     31  N1  UNL     1      -1.240  -1.761   2.831  0.00  0.00    +0.000 N 
ATOM     32  C2  UNL     1      -1.484  -2.852   3.778  0.00  0.00    +0.000 C 
ENDBRANCH  24  31
ENDBRANCH  23  29
ENDBRANCH   1  23
TORSDOF 7
